# vtk DataFile Version 3.0
vtk output
ASCII
DATASET STRUCTURED_GRID
DIMENSIONS 64 64 1
POINTS 4096 float
0 0 0
0 0.015625 0
0 0.03125 0
0 0.046875 0
0 0.0625 0
0 0.078125 0
0 0.09375 0
0 0.109375 0
0 0.125 0
0 0.140625 0
0 0.15625 0
0 0.171875 0
0 0.1875 0
0 0.203125 0
0 0.21875 0
0 0.234375 0
0 0.25 0
0 0.265625 0
0 0.28125 0
0 0.296875 0
0 0.3125 0
0 0.328125 0
0 0.34375 0
0 0.359375 0
0 0.375 0
0 0.390625 0
0 0.40625 0
0 0.421875 0
0 0.4375 0
0 0.453125 0
0 0.46875 0
0 0.484375 0
0 0.5 0
0 0.515625 0
0 0.53125 0
0 0.546875 0
0 0.5625 0
0 0.578125 0
0 0.59375 0
0 0.609375 0
0 0.625 0
0 0.640625 0
0 0.65625 0
0 0.671875 0
0 0.6875 0
0 0.703125 0
0 0.71875 0
0 0.734375 0
0 0.75 0
0 0.765625 0
0 0.78125 0
0 0.796875 0
0 0.8125 0
0 0.828125 0
0 0.84375 0
0 0.859375 0
0 0.875 0
0 0.890625 0
0 0.90625 0
0 0.921875 0
0 0.9375 0
0 0.953125 0
0 0.96875 0
0 0.984375 0
0.015625 0 0
0.015625 0.015625 0
0.015625 0.03125 0
0.015625 0.046875 0
0.015625 0.0625 0
0.015625 0.078125 0
0.015625 0.09375 0
0.015625 0.109375 0
0.015625 0.125 0
0.015625 0.140625 0
0.015625 0.15625 0
0.015625 0.171875 0
0.015625 0.1875 0
0.015625 0.203125 0
0.015625 0.21875 0
0.015625 0.234375 0
0.015625 0.25 0
0.015625 0.265625 0
0.015625 0.28125 0
0.015625 0.296875 0
0.015625 0.3125 0
0.015625 0.328125 0
0.015625 0.34375 0
0.015625 0.359375 0
0.015625 0.375 0
0.015625 0.390625 0
0.015625 0.40625 0
0.015625 0.421875 0
0.015625 0.4375 0
0.015625 0.453125 0
0.015625 0.46875 0
0.015625 0.484375 0
0.015625 0.5 0
0.015625 0.515625 0
0.015625 0.53125 0
0.015625 0.546875 0
0.015625 0.5625 0
0.015625 0.578125 0
0.015625 0.59375 0
0.015625 0.609375 0
0.015625 0.625 0
0.015625 0.640625 0
0.015625 0.65625 0
0.015625 0.671875 0
0.015625 0.6875 0
0.015625 0.703125 0
0.015625 0.71875 0
0.015625 0.734375 0
0.015625 0.75 0
0.015625 0.765625 0
0.015625 0.78125 0
0.015625 0.796875 0
0.015625 0.8125 0
0.015625 0.828125 0
0.015625 0.84375 0
0.015625 0.859375 0
0.015625 0.875 0
0.015625 0.890625 0
0.015625 0.90625 0
0.015625 0.921875 0
0.015625 0.9375 0
0.015625 0.953125 0
0.015625 0.96875 0
0.015625 0.984375 0
0.03125 0 0
0.03125 0.015625 0
0.03125 0.03125 0
0.03125 0.046875 0
0.03125 0.0625 0
0.03125 0.078125 0
0.03125 0.09375 0
0.03125 0.109375 0
0.03125 0.125 0
0.03125 0.140625 0
0.03125 0.15625 0
0.03125 0.171875 0
0.03125 0.1875 0
0.03125 0.203125 0
0.03125 0.21875 0
0.03125 0.234375 0
0.03125 0.25 0
0.03125 0.265625 0
0.03125 0.28125 0
0.03125 0.296875 0
0.03125 0.3125 0
0.03125 0.328125 0
0.03125 0.34375 0
0.03125 0.359375 0
0.03125 0.375 0
0.03125 0.390625 0
0.03125 0.40625 0
0.03125 0.421875 0
0.03125 0.4375 0
0.03125 0.453125 0
0.03125 0.46875 0
0.03125 0.484375 0
0.03125 0.5 0
0.03125 0.515625 0
0.03125 0.53125 0
0.03125 0.546875 0
0.03125 0.5625 0
0.03125 0.578125 0
0.03125 0.59375 0
0.03125 0.609375 0
0.03125 0.625 0
0.03125 0.640625 0
0.03125 0.65625 0
0.03125 0.671875 0
0.03125 0.6875 0
0.03125 0.703125 0
0.03125 0.71875 0
0.03125 0.734375 0
0.03125 0.75 0
0.03125 0.765625 0
0.03125 0.78125 0
0.03125 0.796875 0
0.03125 0.8125 0
0.03125 0.828125 0
0.03125 0.84375 0
0.03125 0.859375 0
0.03125 0.875 0
0.03125 0.890625 0
0.03125 0.90625 0
0.03125 0.921875 0
0.03125 0.9375 0
0.03125 0.953125 0
0.03125 0.96875 0
0.03125 0.984375 0
0.046875 0 0
0.046875 0.015625 0
0.046875 0.03125 0
0.046875 0.046875 0
0.046875 0.0625 0
0.046875 0.078125 0
0.046875 0.09375 0
0.046875 0.109375 0
0.046875 0.125 0
0.046875 0.140625 0
0.046875 0.15625 0
0.046875 0.171875 0
0.046875 0.1875 0
0.046875 0.203125 0
0.046875 0.21875 0
0.046875 0.234375 0
0.046875 0.25 0
0.046875 0.265625 0
0.046875 0.28125 0
0.046875 0.296875 0
0.046875 0.3125 0
0.046875 0.328125 0
0.046875 0.34375 0
0.046875 0.359375 0
0.046875 0.375 0
0.046875 0.390625 0
0.046875 0.40625 0
0.046875 0.421875 0
0.046875 0.4375 0
0.046875 0.453125 0
0.046875 0.46875 0
0.046875 0.484375 0
0.046875 0.5 0
0.046875 0.515625 0
0.046875 0.53125 0
0.046875 0.546875 0
0.046875 0.5625 0
0.046875 0.578125 0
0.046875 0.59375 0
0.046875 0.609375 0
0.046875 0.625 0
0.046875 0.640625 0
0.046875 0.65625 0
0.046875 0.671875 0
0.046875 0.6875 0
0.046875 0.703125 0
0.046875 0.71875 0
0.046875 0.734375 0
0.046875 0.75 0
0.046875 0.765625 0
0.046875 0.78125 0
0.046875 0.796875 0
0.046875 0.8125 0
0.046875 0.828125 0
0.046875 0.84375 0
0.046875 0.859375 0
0.046875 0.875 0
0.046875 0.890625 0
0.046875 0.90625 0
0.046875 0.921875 0
0.046875 0.9375 0
0.046875 0.953125 0
0.046875 0.96875 0
0.046875 0.984375 0
0.0625 0 0
0.0625 0.015625 0
0.0625 0.03125 0
0.0625 0.046875 0
0.0625 0.0625 0
0.0625 0.078125 0
0.0625 0.09375 0
0.0625 0.109375 0
0.0625 0.125 0
0.0625 0.140625 0
0.0625 0.15625 0
0.0625 0.171875 0
0.0625 0.1875 0
0.0625 0.203125 0
0.0625 0.21875 0
0.0625 0.234375 0
0.0625 0.25 0
0.0625 0.265625 0
0.0625 0.28125 0
0.0625 0.296875 0
0.0625 0.3125 0
0.0625 0.328125 0
0.0625 0.34375 0
0.0625 0.359375 0
0.0625 0.375 0
0.0625 0.390625 0
0.0625 0.40625 0
0.0625 0.421875 0
0.0625 0.4375 0
0.0625 0.453125 0
0.0625 0.46875 0
0.0625 0.484375 0
0.0625 0.5 0
0.0625 0.515625 0
0.0625 0.53125 0
0.0625 0.546875 0
0.0625 0.5625 0
0.0625 0.578125 0
0.0625 0.59375 0
0.0625 0.609375 0
0.0625 0.625 0
0.0625 0.640625 0
0.0625 0.65625 0
0.0625 0.671875 0
0.0625 0.6875 0
0.0625 0.703125 0
0.0625 0.71875 0
0.0625 0.734375 0
0.0625 0.75 0
0.0625 0.765625 0
0.0625 0.78125 0
0.0625 0.796875 0
0.0625 0.8125 0
0.0625 0.828125 0
0.0625 0.84375 0
0.0625 0.859375 0
0.0625 0.875 0
0.0625 0.890625 0
0.0625 0.90625 0
0.0625 0.921875 0
0.0625 0.9375 0
0.0625 0.953125 0
0.0625 0.96875 0
0.0625 0.984375 0
0.078125 0 0
0.078125 0.015625 0
0.078125 0.03125 0
0.078125 0.046875 0
0.078125 0.0625 0
0.078125 0.078125 0
0.078125 0.09375 0
0.078125 0.109375 0
0.078125 0.125 0
0.078125 0.140625 0
0.078125 0.15625 0
0.078125 0.171875 0
0.078125 0.1875 0
0.078125 0.203125 0
0.078125 0.21875 0
0.078125 0.234375 0
0.078125 0.25 0
0.078125 0.265625 0
0.078125 0.28125 0
0.078125 0.296875 0
0.078125 0.3125 0
0.078125 0.328125 0
0.078125 0.34375 0
0.078125 0.359375 0
0.078125 0.375 0
0.078125 0.390625 0
0.078125 0.40625 0
0.078125 0.421875 0
0.078125 0.4375 0
0.078125 0.453125 0
0.078125 0.46875 0
0.078125 0.484375 0
0.078125 0.5 0
0.078125 0.515625 0
0.078125 0.53125 0
0.078125 0.546875 0
0.078125 0.5625 0
0.078125 0.578125 0
0.078125 0.59375 0
0.078125 0.609375 0
0.078125 0.625 0
0.078125 0.640625 0
0.078125 0.65625 0
0.078125 0.671875 0
0.078125 0.6875 0
0.078125 0.703125 0
0.078125 0.71875 0
0.078125 0.734375 0
0.078125 0.75 0
0.078125 0.765625 0
0.078125 0.78125 0
0.078125 0.796875 0
0.078125 0.8125 0
0.078125 0.828125 0
0.078125 0.84375 0
0.078125 0.859375 0
0.078125 0.875 0
0.078125 0.890625 0
0.078125 0.90625 0
0.078125 0.921875 0
0.078125 0.9375 0
0.078125 0.953125 0
0.078125 0.96875 0
0.078125 0.984375 0
0.09375 0 0
0.09375 0.015625 0
0.09375 0.03125 0
0.09375 0.046875 0
0.09375 0.0625 0
0.09375 0.078125 0
0.09375 0.09375 0
0.09375 0.109375 0
0.09375 0.125 0
0.09375 0.140625 0
0.09375 0.15625 0
0.09375 0.171875 0
0.09375 0.1875 0
0.09375 0.203125 0
0.09375 0.21875 0
0.09375 0.234375 0
0.09375 0.25 0
0.09375 0.265625 0
0.09375 0.28125 0
0.09375 0.296875 0
0.09375 0.3125 0
0.09375 0.328125 0
0.09375 0.34375 0
0.09375 0.359375 0
0.09375 0.375 0
0.09375 0.390625 0
0.09375 0.40625 0
0.09375 0.421875 0
0.09375 0.4375 0
0.09375 0.453125 0
0.09375 0.46875 0
0.09375 0.484375 0
0.09375 0.5 0
0.09375 0.515625 0
0.09375 0.53125 0
0.09375 0.546875 0
0.09375 0.5625 0
0.09375 0.578125 0
0.09375 0.59375 0
0.09375 0.609375 0
0.09375 0.625 0
0.09375 0.640625 0
0.09375 0.65625 0
0.09375 0.671875 0
0.09375 0.6875 0
0.09375 0.703125 0
0.09375 0.71875 0
0.09375 0.734375 0
0.09375 0.75 0
0.09375 0.765625 0
0.09375 0.78125 0
0.09375 0.796875 0
0.09375 0.8125 0
0.09375 0.828125 0
0.09375 0.84375 0
0.09375 0.859375 0
0.09375 0.875 0
0.09375 0.890625 0
0.09375 0.90625 0
0.09375 0.921875 0
0.09375 0.9375 0
0.09375 0.953125 0
0.09375 0.96875 0
0.09375 0.984375 0
0.109375 0 0
0.109375 0.015625 0
0.109375 0.03125 0
0.109375 0.046875 0
0.109375 0.0625 0
0.109375 0.078125 0
0.109375 0.09375 0
0.109375 0.109375 0
0.109375 0.125 0
0.109375 0.140625 0
0.109375 0.15625 0
0.109375 0.171875 0
0.109375 0.1875 0
0.109375 0.203125 0
0.109375 0.21875 0
0.109375 0.234375 0
0.109375 0.25 0
0.109375 0.265625 0
0.109375 0.28125 0
0.109375 0.296875 0
0.109375 0.3125 0
0.109375 0.328125 0
0.109375 0.34375 0
0.109375 0.359375 0
0.109375 0.375 0
0.109375 0.390625 0
0.109375 0.40625 0
0.109375 0.421875 0
0.109375 0.4375 0
0.109375 0.453125 0
0.109375 0.46875 0
0.109375 0.484375 0
0.109375 0.5 0
0.109375 0.515625 0
0.109375 0.53125 0
0.109375 0.546875 0
0.109375 0.5625 0
0.109375 0.578125 0
0.109375 0.59375 0
0.109375 0.609375 0
0.109375 0.625 0
0.109375 0.640625 0
0.109375 0.65625 0
0.109375 0.671875 0
0.109375 0.6875 0
0.109375 0.703125 0
0.109375 0.71875 0
0.109375 0.734375 0
0.109375 0.75 0
0.109375 0.765625 0
0.109375 0.78125 0
0.109375 0.796875 0
0.109375 0.8125 0
0.109375 0.828125 0
0.109375 0.84375 0
0.109375 0.859375 0
0.109375 0.875 0
0.109375 0.890625 0
0.109375 0.90625 0
0.109375 0.921875 0
0.109375 0.9375 0
0.109375 0.953125 0
0.109375 0.96875 0
0.109375 0.984375 0
0.125 0 0
0.125 0.015625 0
0.125 0.03125 0
0.125 0.046875 0
0.125 0.0625 0
0.125 0.078125 0
0.125 0.09375 0
0.125 0.109375 0
0.125 0.125 0
0.125 0.140625 0
0.125 0.15625 0
0.125 0.171875 0
0.125 0.1875 0
0.125 0.203125 0
0.125 0.21875 0
0.125 0.234375 0
0.125 0.25 0
0.125 0.265625 0
0.125 0.28125 0
0.125 0.296875 0
0.125 0.3125 0
0.125 0.328125 0
0.125 0.34375 0
0.125 0.359375 0
0.125 0.375 0
0.125 0.390625 0
0.125 0.40625 0
0.125 0.421875 0
0.125 0.4375 0
0.125 0.453125 0
0.125 0.46875 0
0.125 0.484375 0
0.125 0.5 0
0.125 0.515625 0
0.125 0.53125 0
0.125 0.546875 0
0.125 0.5625 0
0.125 0.578125 0
0.125 0.59375 0
0.125 0.609375 0
0.125 0.625 0
0.125 0.640625 0
0.125 0.65625 0
0.125 0.671875 0
0.125 0.6875 0
0.125 0.703125 0
0.125 0.71875 0
0.125 0.734375 0
0.125 0.75 0
0.125 0.765625 0
0.125 0.78125 0
0.125 0.796875 0
0.125 0.8125 0
0.125 0.828125 0
[...]
POINT_DATA 4096
SCALARS values float
LOOKUP_TABLE default
0
0
0
0
0
0
0
0
0
0
0
0
0
0
0
0
0
0
0
0
0
0
0
0
0
0
0
0
0
0
0
0
0
0
0
0
0
0
0
0
0
0
0
0
0
0
0
0
0
0
0
0
0
0
0
0
0
0
0
0
0
0
0
0
0
0.0081469177
0.016241523
0.024230961
0.032061416
0.0396779
0.047024314
0.054043773
0.060679168
0.066873907
0.072572777
0.077722863
0.082274464
0.086181977
0.089404718
0.091907647
0.093662002
0.094645824
0.094844374
0.094250442
0.092864551
0.090695059
0.087758155
0.084077767
0.079685377
0.074619749
0.068926576
0.06265806
0.05587241
0.048633293
0.04100922
0.033072886
0.024900479
0.016570941
0.0081652198
-0.00023450386
-0.0085455912
-0.016685723
-0.024573664
-0.032130015
-0.039277936
-0.045943842
-0.052058057
-0.057555433
-0.062375922
-0.066465108
-0.069774697
-0.072262977
-0.073895252
-0.074644281
-0.074490726
-0.07342365
-0.071441088
-0.068550718
-0.064770663
-0.060130404
-0.054671798
-0.0484501
-0.041534857
-0.03401046
-0.025976096
-0.017544822
-0.0088415678
0
0
0.01614893
0.032195736
0.048037072
0.063567413
0.078678571
0.093259792
0.10719842
0.12038104
0.13269508
0.14403047
0.15428161
0.16334919
0.17114202
0.1775786
0.18258867
0.18611441
0.18811155
0.18855015
0.18741524
0.18470725
0.18044216
0.17465155
0.16738241
0.15869675
0.14867106
0.13739567
0.12497384
0.11152083
0.09716278
0.082035484
0.066283115
0.050056821
0.03351328
0.016813204
0.00011980938
-0.016402727
-0.032590807
-0.048282937
-0.063321213
-0.077552766
-0.090831136
-0.10301758
-0.11398229
-0.12360555
-0.13177873
-0.13840534
-0.14340183
-0.14669855
-0.1482405
-0.14798826
-0.14591897
-0.14202738
-0.13632725
-0.12885292
-0.11966121
-0.10883349
-0.096477954
-0.082731571
-0.067761499
-0.051765267
-0.034969148
-0.017624231
0
0
0.023860589
0.047574368
0.070992313
0.093961461
0.116324
0.13791737
0.15857531
0.17812972
0.19641306
0.21326119
0.22851621
0.24202938
0.25366383
0.26329708
0.27082323
0.27615486
0.27922461
0.27998646
0.2784166
0.27451407
0.26830108
0.259823
0.2491481
0.23636703
0.221592
0.2049558
0.18661052
0.16672613
0.14548884
0.12309933
0.099770786
0.075726892
0.051199648
0.026427175
0.0016514381
-0.022884037
-0.046936451
-0.070265988
-0.092638031
-0.11382529
-0.13360986
-0.15178514
-0.16815765
-0.1825487
-0.19479597
-0.20475487
-0.2122999
-0.21732584
-0.21974898
-0.2195084
-0.21656726
-0.21091451
-0.20256676
-0.19157075
-0.17800621
-0.16198927
-0.14367616
-0.12326679
-0.10100757
-0.077192461
-0.052161221
-0.026293731
0
0
0.031135226
0.062086967
0.092668003
0.12268446
0.15193427
0.18020726
0.20728665
0.23295184
0.25698186
0.27915938
0.29927474
0.31712993
0.33254232
0.34534807
0.35540503
0.36259532
0.36682742
0.36803782
0.36619227
0.36128657
0.35334699
0.34243031
0.32862349
0.31204296
0.29283361
0.27116749
0.24724216
0.22127883
0.19352022
0.16422826
0.13368153
0.10217259
0.070005183
0.037491316
0.0049483007
-0.027304255
-0.058947442
-0.089666021
-0.11915132
-0.14710404
-0.17323694
-0.19727737
-0.21896967
-0.23807731
-0.25438492
-0.26770012
-0.2778552
-0.28470863
-0.28814661
-0.28808456
-0.28446883
-0.27727871
-0.2665289
-0.25227271
-0.234606
-0.21367212
-0.1896675
-0.16284754
-0.13353186
-0.10210744
-0.06902768
-0.034805638
0
0
0.037823958
0.075439141
0.11263062
0.14917256
0.18482577
0.2193378
0.25244519
0.28387741
0.31336174
0.34062863
0.36541715
0.38748014
0.406589
0.42253797
0.43514782
0.44426909
0.44978461
0.4516116
0.4497032
0.44404949
0.43467797
0.4216537
0.40507882
0.38509181
0.36186622
0.33560911
0.30655906
0.27498391
0.2411782
0.20546028
0.16816931
0.12966193
0.090308867
0.05049137
0.010597589
-0.028981099
-0.067853766
-0.10563357
-0.1419413
-0.17640883
-0.2086824
-0.23842573
-0.2653229
-0.28908104
-0.30943272
-0.32613818
-0.33898726
-0.3478012
-0.35243438
-0.35277593
-0.34875167
-0.34032631
-0.32750632
-0.31034374
-0.28894125
-0.26345871
-0.23412124
-0.2012284
-0.16516337
-0.12640009
-0.085505291
-0.043131754
0
0
0.043774168
0.08732984
0.13043845
0.17285377
0.2143083
0.2545135
0.29316338
0.32994006
0.36452063
0.39658416
0.42581876
0.45192807
0.47463709
0.49369742
0.50889173
0.52003748
0.52699006
0.52964521
0.52794079
0.52185805
0.51142228
0.49670283
0.47781279
0.45490801
0.42818571
0.39788269
0.36427305
0.32766556
0.28840069
0.24684735
0.20339926
0.15847119
0.11249499
0.065915379
0.019185796
-0.027235954
-0.072891975
-0.11732854
-0.16010025
-0.20077409
-0.23893325
-0.27418079
-0.30614301
-0.33447256
-0.3588512
-0.37899237
-0.39464331
-0.40558707
-0.41164422
-0.41267462
-0.4085792
-0.39930222
-0.38483424
-0.36521627
-0.34054572
-0.31098469
-0.27677089
-0.2382313
-0.19579751
-0.15001993
-0.10157646
-0.05126879
0
0
0.048827083
0.097447112
0.14563642
0.19314286
0.23968067
0.28493177
0.32855144
0.37017659
0.40943508
0.445955
0.47937348
0.50934459
0.53554636
0.55768681
0.57550917
0.58879618
0.59737359
0.601113
0.59993388
0.59380502
0.58274527
0.56682371
0.54615921
0.52091947
0.49131949
0.45761952
0.42012263
0.37917177
0.33514643
0.28845895
0.23955059
0.18888719
0.13695472
0.084254611
0.031298965
-0.021394289
-0.07330626
-0.12392192
-0.17273483
-0.21925173
-0.26299687
-0.3035162
-0.34038116
-0.37319217
-0.40158179
-0.42521741
-0.4438037
-0.45708452
-0.46484472
-0.46691162
-0.46315659
-0.45349694
-0.43789854
-0.41637989
-0.38901844
-0.35596014
-0.31743355
-0.27376895
-0.2254225
-0.17300253
-0.11729134
-0.059251153
0
0
0.052813856
0.10546136
0.15774818
0.20943356
0.26022421
0.30977818
0.35771457
0.40362584
0.44709064
0.48768568
0.52499657
0.55862718
0.58820765
0.61340133
0.63391051
0.64948122
0.65990715
0.6650327
0.66475537
0.65902726
0.64785602
0.63130509
0.60949325
0.58259367
0.55083226
0.51448555
0.47387803
0.42937899
0.38139894
0.3303856
0.27681957
0.22120965
0.16408793
0.10600472
0.047523227
-0.01078574
-0.068349149
-0.12459707
-0.17896792
-0.23091349
-0.27990387
-0.32543193
-0.36701763
-0.40421184
-0.43659974
-0.46380382
-0.4854863
-0.50135114
-0.51114557
-0.51466126
-0.51173532
-0.50225142
-0.48614149
-0.46338888
-0.43403404
-0.39818444
-0.35603091
-0.30787289
-0.25415402
-0.19550726
-0.13280149
-0.067171282
0
0
0.05554903
0.1110145
0.16626378
0.22108727
0.27519362
0.32821994
0.37974885
0.42932691
0.47648187
0.52073769
0.56162729
0.59870331
0.63154699
0.6597757
0.68304913
0.70107447
0.71361058
0.72047134
0.72152819
0.71671185
0.70601339
0.68948455
0.6672374
0.63944335
0.60633155
0.56818663
0.525346
0.47819651
0.42717067
0.37274244
0.31542259
0.25575375
0.19430516
0.13166719
0.068445677
0.0052561946
-0.057281758
-0.11855052
-0.17793992
-0.23485282
-0.28871036
-0.33895694
-0.38506483
-0.42653835
-0.46291756
-0.49378133
-0.51874995
-0.53748698
-0.5497005
-0.55514379
-0.55361543
-0.54495924
-0.52906429
-0.50586603
-0.47534974
-0.4375587
-0.39261054
-0.34072685
-0.28228173
-0.21787338
-0.14841427
-0.07521454
0
0
0.056819154
0.11370202
0.17062075
0.22741669
0.28380463
0.33939763
0.39373652
0.44631701
0.49661222
0.54409075
0.58823117
0.62853363
0.66452935
0.69578836
0.72192607
0.7426085
0.75755678
0.76655057
0.76943082
0.76610166
0.7565316
0.74075403
0.71886689
0.69103189
0.65747281
0.61847339
0.57437452
0.52557084
0.47250691
0.4156728
0.35559932
0.29285286
0.22802986
0.16175108
0.09465563
0.027394912
-0.039373539
-0.10499218
-0.16880951
-0.23018596
-0.28849951
-0.3431511
-0.39356949
-0.43921582
-0.47958748
-0.51422142
-0.54269676
-0.56463654
-0.57970869
-0.58762601
-0.58814525
-0.58106539
-0.56622524
-0.54350117
-0.51280613
-0.47409262
-0.42736422
-0.37270384
-0.31033124
-0.24070584
-0.16468585
-0.083724004
0
0
0.056361695
0.11304245
0.17017488
0.227663
0.28521851
0.34241581
0.39874099
0.45362958
0.50649409
0.55674428
0.6038024
0.64711492
0.68616202
0.72046526
0.74959404
0.77317094
0.7908762
0.80245137
0.80770208
0.80650022
0.79878523
0.78456479
0.7639147
0.73697815
0.70396425
0.66514593
0.62085723
0.57148994
0.51748977
0.45935188
0.39761607
0.33286149
0.26570099
0.19677519
0.12674633
0.056291976
-0.013901446
-0.083145007
-0.15075366
-0.21605242
-0.27838238
-0.33710634
-0.39161409
-0.44132719
-0.48570314
-0.52423885
-0.55647336
-0.58198951
-0.60041463
-0.61141992
-0.61471839
-0.61006123
-0.59723249
-0.57604212
-0.54631817
-0.50789984
-0.46063626
-0.40440097
-0.33914243
-0.26500726
-0.18258806
-0.093331757
0
0
0.053822569
0.10842351
0.16415539
0.22096562
0.2785243
0.33633388
0.39380308
0.45029356
0.50514985
0.55771929
0.60736621
0.65348279
0.69549765
0.73288301
0.76516082
0.79190794
0.81276056
0.8274179
0.83564519
0.83727592
0.83221345
0.82043182
0.80197593
0.77696097
0.74557123
0.70805812
0.66473767
0.61598731
0.56224211
0.50399045
0.4417692
0.37615845
0.30777584
0.23727059
0.16531718
0.092608954
0.019851524
-0.052243862
-0.12296689
-0.19161464
-0.25749786
-0.31994692
-0.37831736
-0.43199498
-0.48040031
-0.52299232
-0.55927125
-0.58878044
-0.61110679
-0.62587974
-0.6327683
-0.63147564
-0.62173074
-0.60327625
-0.5758519
-0.53917331
-0.49290782
-0.43665501
-0.36995398
-0.29237477
-0.20381969
-0.10525236
0
0
0.048661248
0.099004336
0.15159919
0.20632668
0.26272276
0.32016066
0.37794058
0.43533514
0.49161435
0.54606101
0.59798151
0.64671425
0.69163667
0.73217141
0.76779185
0.79802697
0.82246568
0.84076054
0.8526309
0.85786536
0.85632358
0.84793747
0.8327116
0.81072299
0.78212018
0.74712159
0.70601326
0.65914591
0.6069314
0.5498386
0.48838876
0.42315031
0.35473335
0.28378365
0.21097644
0.1370099
0.062598504
-0.011533689
-0.084659798
-0.15605677
-0.22501186
-0.29082886
-0.35283396
-0.41038113
-0.46285688
-0.50968435
-0.55032642
-0.58428775
-0.61111544
-0.63039786
-0.6417613
-0.64486345
-0.6393828
-0.6250021
-0.6013833
-0.56813039
-0.52473503
-0.47050084
-0.40445058
-0.32525983
-0.23139425
-0.12201416
0
0
0.039911377
0.083538919
0.13126585
0.18258067
0.23672091
0.29285792
0.35015416
0.40778333
0.46493943
0.52084251
0.57474367
0.62592995
0.67372925
0.71751519
0.7567119
0.79079851
0.81931341
0.84185796
0.85809986
0.86777582
0.87069378
0.86673437
0.8558518
0.83807401
0.81350215
0.78230939
0.74473906
0.70110203
0.65177361
0.59718968
0.53784239
0.47427524
0.40707773
0.33687959
0.26434467
0.1901645
0.11505169
0.039733165
-0.035056641
-0.10858258
-0.18011544
-0.24893844
-0.3143533
-0.37568602
-0.432292
-0.48356054
-0.52891842
-0.56783241
-0.59981044
-0.62440086
-0.64118948
-0.64979313
-0.64984855
-0.64099409
-0.62284007
-0.59492061
-0.55661357
-0.50700424
-0.44464922
-0.36717518
-0.27068886
-0.14950331
0
0
0.025494694
0.060092195
0.10157004
0.14839935
0.19935274
0.25335986
0.30944184
0.36667994
0.42420056
0.48116885
0.53678708
0.59029573
0.64097626
0.68815468
0.73120566
0.76955671
0.80269237
0.83015808
0.85156375
0.86658684
0.87497491
0.87654764
0.87119815
0.85889372
0.83967578
0.81365926
0.78103127
0.74204898
0.69703705
0.6463842
0.59053933
0.53000705
0.46534264
0.39714659
0.32605873
0.25275203
0.17792611
0.10230053
0.026608018
-0.048412379
-0.1220221
-0.19348971
-0.26209732
-0.32714665
-0.3879646
-0.44390828
-0.49436924
-0.53877667
-0.57659951
-0.60734674
-0.63056574
-0.64583742
-0.6527671
-0.65096865
-0.64003762
-0.61950547
-0.58875833
-0.54688376
-0.492357
-0.42232821
-0.33080079
-0.20335957
0
0
0.025834356
0.060675473
0.10238827
0.14944336
0.20061193
0.25482194
0.31109283
0.36850423
0.42618103
0.483287
0.5390232
0.59262908
0.64338525
0.69061705
0.7336987
0.77205747
0.80517786
0.83260548
0.85395063
0.86889137
0.87717609
0.87862547
0.87313384
0.86066985
0.84127651
0.81507047
0.78224068
0.7430463
0.69781407
0.64693487
0.59085984
0.53009586
0.4652005
0.39677653
0.32546607
0.25194429
0.17691294
0.10109367
0.025221122
-0.049963836
-0.12372099
-0.19531741
-0.2640339
-0.32917108
-0.39005495
-0.44604198
-0.49652325
-0.54092779
-0.57872456
-0.60942288
-0.63257064
-0.64774956
-0.65456601
-0.65263509
-0.64155387
-0.62085549
-0.589928
-0.54786113
-0.4931326
-0.42289575
-0.33115896
-0.20351786
0
0
0.040681828
0.085043997
0.1334802
0.18547832
0.24027193
0.2970274
0.35490206
0.41306465
0.4707045
0.52703744
0.5813108
0.63280834
0.68085522
0.72482293
0.76413401
0.79826665
0.82675891
0.84921247
0.86529597
0.87474772
0.87737787
0.87306987
0.86178134
0.84354417
0.81846403
0.78671905
0.74855794
0.70429738
0.6543188
0.59906447
0.53903314
0.47477506
0.40688657
0.33600423
0.26279869
0.18796814
0.11223168
0.036322469
-0.039019137
-0.11305245
-0.18504315
-0.25426982
-0.32003011
-0.3816465
-0.43847153
-0.48989226
-0.53533394
-0.57426252
-0.60618584
-0.6306529
-0.64725091
-0.65559881
-0.65533619
-0.64610496
-0.62751965
-0.59911923
-0.56028704
-0.51011446
-0.44716487
-0.3690726
-0.27195345
-0.15013155
0
0
0.049883587
0.10142728
0.15519204
0.21105049
0.26852982
0.3269943
0.38573537
0.4440173
0.50110233
0.55626621
0.60880903
0.65806373
0.70340315
0.74424632
0.78006395
0.81038336
0.83479286
0.85294543
0.86456193
0.86943347
0.86742332
0.85846796
0.84257754
0.81983555
0.79039789
0.75449114
0.71241021
0.66451536
0.61122853
0.55302913
0.49044929
0.4240686
0.35450843
0.28242589
0.20850745
0.13346233
0.058015765
-0.017097838
-0.091141767
-0.16338374
-0.23310251
-0.29959415
-0.362178
-0.42020217
-0.47304831
-0.52013578
-0.56092485
-0.59491873
-0.62166424
-0.64075076
-0.65180676
-0.65449338
-0.64849373
-0.63349633
-0.60917003
-0.57512676
-0.53086712
-0.47570454
-0.40867251
-0.32845815
-0.23353949
-0.12308954
0
0
0.05549416
0.11174653
0.16909354
0.22746822
0.286527
0.34575924
0.40456121
0.46228288
0.51825799
0.57182406
0.62233668
0.66918045
0.7117776
0.74959529
0.78215172
0.80902141
0.82983963
0.84430613
0.85218814
0.85332261
0.84761775
0.8350539
0.81568359
0.78963092
0.75709029
0.71832436
0.6736614
0.62349197
0.56826507
0.50848361
0.44469954
0.37750834
0.30754328
0.23546922
0.16197623
0.087772964
0.01357993
-0.059877266
-0.13187466
-0.20169653
-0.26864178
-0.33203002
-0.39120729
-0.44555117
-0.49447539
-0.53743362
-0.57392238
-0.60348291
-0.62570168
-0.64020941
-0.64667807
-0.64481551
-0.63435705
-0.61505328
-0.58665344
-0.54888406
-0.50142475
-0.44388852
-0.37582893
-0.29683134
-0.20681386
-0.10675602
0
0
0.05846892
0.11723461
0.17640902
0.23587695
0.29533205
0.35433167
0.41234597
0.46879558
0.52307933
0.57459457
0.62275245
0.66698985
0.70677885
0.74163452
0.77112149
0.7948593
0.81252698
0.82386664
0.82868638
0.82686236
0.81834012
0.8031352
0.781333
0.75308791
0.71862177
0.67822167
0.6322371
0.58107643
0.52520293
0.46513016
0.40141694
0.33466192
0.26549769
0.1945847
0.12260493
0.050255322
-0.021758787
-0.092730266
-0.16195674
-0.22874695
-0.29242694
-0.35234582
-0.40788126
-0.45844431
-0.50348378
-0.54248979
-0.57499652
-0.60058409
-0.61887917
-0.62955446
-0.63232666
-0.6269528
-0.61322489
-0.59096293
-0.56000693
-0.52020992
-0.47143652
-0.41357717
-0.34659848
-0.27066605
-0.18639207
-0.095243083
0
0
0.059341449
0.11872101
0.17808621
0.23725506
0.29592042
0.35367478
0.4100398
0.46449338
0.51649229
0.56549029
0.61095272
0.65236819
0.68925821
0.721185
0.74775817
0.76864003
0.78355013
0.79226876
0.79463968
0.79057204
0.78004158
0.76309097
0.73982958
0.71043241
0.67513845
0.63424831
0.5881213
0.53717189
0.48186562
0.42271457
0.36027231
0.29512856
0.22790341
0.15924141
0.089805302
0.020269764
-0.048684983
-0.11637953
-0.18214154
-0.24531187
-0.30525037
-0.36134149
-0.41299933
-0.45967234
-0.50084734
-0.53605301
-0.56486254
-0.58689553
-0.60181899
-0.6093474
-0.60924183
-0.60130815
-0.58539466
-0.56138972
-0.52922065
-0.48885655
-0.4403196
-0.38371302
-0.31927829
-0.24749755
-0.16925231
-0.086018784
0
0
0.058460492
0.11680807
0.17488165
0.23244463
0.28918034
0.34470226
0.398571
0.45031278
0.49943662
0.54544947
0.58786907
0.62623475
0.66011652
0.68912268
0.71290615
0.73116971
0.7436703
0.75022237
0.75070047
0.74504098
0.73324315
0.71536932
0.69154457
0.66195557
0.62684885
0.58652843
0.54135288
0.49173183
0.43812193
0.38102246
0.32097042
0.25853533
0.19431373
0.1289234
0.062997484
-0.0028215599
-0.067888002
-0.13155888
-0.1931999
-0.25219124
-0.30793299
-0.3598504
-0.40739866
-0.4500673
-0.487384
-0.51891791
-0.54428228
-0.56313649
-0.57518741
-0.58019007
-0.57794786
-0.56831244
-0.55118377
-0.5265111
-0.49429633
-0.45460198
-0.40756732
-0.35343757
-0.29261209
-0.22571546
-0.15368713
-0.077864375
0
0
0.056084209
0.11196864
0.16742673
0.22218741
0.27592922
0.32828405
0.37884673
0.42718729
0.47286365
0.51543365
0.55446596
0.58954955
0.62030195
0.64637625
0.66746701
0.68331519
0.69371213
0.69850272
0.69758774
0.69092545
0.67853249
0.66048401
0.6369132
0.60801017
0.57402019
0.53524137
0.4920218
0.44475623
0.39388213
0.33987556
0.28324646
0.22453375
0.16430013
0.10312665
0.041607167
-0.019657311
-0.080064267
-0.13901531
-0.19592167
-0.25020959
-0.30132537
-0.34874024
-0.3919548
-0.43050309
-0.46395623
-0.4919255
-0.51406499
-0.53007373
-0.5396973
-0.54272911
-0.53901144
-0.52843661
-0.51094862
-0.48654629
-0.45528877
-0.41730529
-0.37281127
-0.32213301
-0.26574298
-0.20430412
-0.13871588
-0.070143348
0
0
0.052422579
0.10460007
0.15627276
0.20715529
0.25693159
0.30525567
0.35175697
0.39604837
0.43773548
0.47642597
0.51173852
0.54331092
0.57080728
0.59392427
0.61239648
0.62600086
0.63456039
0.63794692
0.63608332
0.62894487
0.61656
0.59901042
0.57643056
0.54900649
0.51697421
0.48061747
0.44026507
0.39628768
0.34909425
0.29912812
0.24686261
0.19279657
0.13744946
0.08135647
0.025063307
-0.030878913
-0.085918885
-0.13951026
-0.19111665
-0.24021658
-0.28630805
-0.32891303
-0.36758146
-0.40189506
-0.43147062
-0.45596294
-0.47506741
-0.48852216
-0.49610986
-0.49765941
-0.49304758
-0.48220087
-0.46509826
-0.44177512
-0.41232951
-0.37693154
-0.33583713
-0.28940675
-0.23812892
-0.18264568
-0.12377343
-0.062508018
0
0
0.04765879
0.095055204
0.14192062
0.18797351
0.23291495
0.27642784
0.31817959
0.3578274
0.39502501
0.42942988
0.46071042
0.48855274
0.51266677
0.53279171
0.54870068
0.56020465
0.56715572
0.56944958
0.56702742
0.55987716
0.54803408
0.53158081
0.51064689
0.48540764
0.45608265
0.42293374
0.38626248
0.3464073
0.30374024
0.25866336
0.21160485
0.1630149
0.11336137
0.063125312
0.012796358
-0.037131907
-0.0861666
-0.13382014
-0.17961473
-0.22308677
-0.26379095
-0.30130422
-0.33522944
-0.36519874
-0.39087654
-0.4119623
-0.42819284
-0.43934453
-0.44523519
-0.44572591
-0.44072299
-0.43018025
-0.41410207
-0.39254751
-0.36563626
-0.33355672
-0.29657672
-0.25505672
-0.2094644
-0.16038792
-0.10854306
-0.054768042
0
0
0.041961395
0.083661261
0.12484049
0.16523741
0.20458223
0.24259471
0.27898515
0.31345786
0.34571615
0.37546797
0.40243166
0.42634145
0.44695259
0.4640459
0.47743174
0.48695338
0.49248976
0.49395769
0.49131338
0.48455355
0.47371589
0.45887911
0.44016239
0.41772448
0.39176228
0.36250903
0.33023212
0.29523055
0.25783207
0.21838998
0.17727979
0.13489554
0.091646061
0.047951028
0.0042369666
-0.039066789
-0.081532141
-0.12273623
-0.16226533
-0.19971867
-0.23471199
-0.26688101
-0.29588459
-0.32140767
-0.34316397
-0.36089838
-0.37438913
-0.38344982
-0.38793125
-0.38772328
-0.38275682
-0.3730062
-0.3584921
-0.33928546
-0.31551252
-0.28736138
-0.25508986
-0.21903435
-0.17961828
-0.13735801
-0.092862772
-0.046825111
0
0
0.035492701
0.070732562
0.10548516
0.13952411
0.17262086
0.20454026
0.23504074
0.26387695
0.29080373
0.31558052
0.33797607
0.35777277
0.37477084
0.38879204
0.39968289
0.40731746
0.41159967
0.412465
0.40988191
0.4038526
0.39441346
0.38163501
0.36562152
0.34651012
0.32446964
0.29969907
0.27242569
0.24290291
0.21140785
0.17823867
0.14371172
0.10815847
0.071922339
0.035355413
-0.001184918
-0.037339349
-0.072750043
-0.10706397
-0.1399362
-0.17103302
-0.20003501
-0.22663986
-0.25056508
-0.27155044
-0.28936027
-0.3037855
-0.31464559
-0.32179026
-0.32510118
-0.32449372
-0.31991877
-0.31136489
-0.298861
-0.28247968
-0.26234123
-0.23861872
-0.21154362
-0.18141155
-0.14858708
-0.11350556
-0.076669511
-0.038636803
0
0
0.028417436
0.056580848
0.084299302
0.11140029
0.13770883
0.16304247
0.18721242
0.21002656
0.23129297
0.25082371
0.26843846
0.28396794
0.29725715
0.30816824
0.31658303
0.3224052
0.325562
0.32600574
0.32371471
0.31869391
0.3109753
0.30061779
0.28770688
0.27235397
0.2546954
0.2348912
0.21312363
0.18959543
0.16452789
0.1381587
0.11073972
0.082534521
0.053815858
0.02486307
-0.0040405849
-0.032610617
-0.060563983
-0.087621737
-0.11351161
-0.13797053
-0.16074699
-0.18160332
-0.20031784
-0.21668679
-0.23052615
-0.24167334