# vtk DataFile Version 3.0
vtk output
ASCII
DATASET STRUCTURED_GRID
DIMENSIONS 64 64 1
POINTS 4096 float
0 0 0
0 0.015625 0
0 0.03125 0
0 0.046875 0
0 0.0625 0
0 0.078125 0
0 0.09375 0
0 0.109375 0
0 0.125 0
0 0.140625 0
0 0.15625 0
0 0.171875 0
0 0.1875 0
0 0.203125 0
0 0.21875 0
0 0.234375 0
0 0.25 0
0 0.265625 0
0 0.28125 0
0 0.296875 0
0 0.3125 0
0 0.328125 0
0 0.34375 0
0 0.359375 0
0 0.375 0
0 0.390625 0
0 0.40625 0
0 0.421875 0
0 0.4375 0
0 0.453125 0
0 0.46875 0
0 0.484375 0
0 0.5 0
0 0.515625 0
0 0.53125 0
0 0.546875 0
0 0.5625 0
0 0.578125 0
0 0.59375 0
0 0.609375 0
0 0.625 0
0 0.640625 0
0 0.65625 0
0 0.671875 0
0 0.6875 0
0 0.703125 0
0 0.71875 0
0 0.734375 0
0 0.75 0
0 0.765625 0
0 0.78125 0
0 0.796875 0
0 0.8125 0
0 0.828125 0
0 0.84375 0
0 0.859375 0
0 0.875 0
0 0.890625 0
0 0.90625 0
0 0.921875 0
0 0.9375 0
0 0.953125 0
0 0.96875 0
0 0.984375 0
0.015625 0 0
0.015625 0.015625 0
0.015625 0.03125 0
0.015625 0.046875 0
0.015625 0.0625 0
0.015625 0.078125 0
0.015625 0.09375 0
0.015625 0.109375 0
0.015625 0.125 0
0.015625 0.140625 0
0.015625 0.15625 0
0.015625 0.171875 0
0.015625 0.1875 0
0.015625 0.203125 0
0.015625 0.21875 0
0.015625 0.234375 0
0.015625 0.25 0
0.015625 0.265625 0
0.015625 0.28125 0
0.015625 0.296875 0
0.015625 0.3125 0
0.015625 0.328125 0
0.015625 0.34375 0
0.015625 0.359375 0
0.015625 0.375 0
0.015625 0.390625 0
0.015625 0.40625 0
0.015625 0.421875 0
0.015625 0.4375 0
0.015625 0.453125 0
0.015625 0.46875 0
0.015625 0.484375 0
0.015625 0.5 0
0.015625 0.515625 0
0.015625 0.53125 0
0.015625 0.546875 0
0.015625 0.5625 0
0.015625 0.578125 0
0.015625 0.59375 0
0.015625 0.609375 0
0.015625 0.625 0
0.015625 0.640625 0
0.015625 0.65625 0
0.015625 0.671875 0
0.015625 0.6875 0
0.015625 0.703125 0
0.015625 0.71875 0
0.015625 0.734375 0
0.015625 0.75 0
0.015625 0.765625 0
0.015625 0.78125 0
0.015625 0.796875 0
0.015625 0.8125 0
0.015625 0.828125 0
0.015625 0.84375 0
0.015625 0.859375 0
0.015625 0.875 0
0.015625 0.890625 0
0.015625 0.90625 0
0.015625 0.921875 0
0.015625 0.9375 0
0.015625 0.953125 0
0.015625 0.96875 0
0.015625 0.984375 0
0.03125 0 0
0.03125 0.015625 0
0.03125 0.03125 0
0.03125 0.046875 0
0.03125 0.0625 0
0.03125 0.078125 0
0.03125 0.09375 0
0.03125 0.109375 0
0.03125 0.125 0
0.03125 0.140625 0
0.03125 0.15625 0
0.03125 0.171875 0
0.03125 0.1875 0
0.03125 0.203125 0
0.03125 0.21875 0
0.03125 0.234375 0
0.03125 0.25 0
0.03125 0.265625 0
0.03125 0.28125 0
0.03125 0.296875 0
0.03125 0.3125 0
0.03125 0.328125 0
0.03125 0.34375 0
0.03125 0.359375 0
0.03125 0.375 0
0.03125 0.390625 0
0.03125 0.40625 0
0.03125 0.421875 0
0.03125 0.4375 0
0.03125 0.453125 0
0.03125 0.46875 0
0.03125 0.484375 0
0.03125 0.5 0
0.03125 0.515625 0
0.03125 0.53125 0
0.03125 0.546875 0
0.03125 0.5625 0
0.03125 0.578125 0
0.03125 0.59375 0
0.03125 0.609375 0
0.03125 0.625 0
0.03125 0.640625 0
0.03125 0.65625 0
0.03125 0.671875 0
0.03125 0.6875 0
0.03125 0.703125 0
0.03125 0.71875 0
0.03125 0.734375 0
0.03125 0.75 0
0.03125 0.765625 0
0.03125 0.78125 0
0.03125 0.796875 0
0.03125 0.8125 0
0.03125 0.828125 0
0.03125 0.84375 0
0.03125 0.859375 0
0.03125 0.875 0
0.03125 0.890625 0
0.03125 0.90625 0
0.03125 0.921875 0
0.03125 0.9375 0
0.03125 0.953125 0
0.03125 0.96875 0
0.03125 0.984375 0
0.046875 0 0
0.046875 0.015625 0
0.046875 0.03125 0
0.046875 0.046875 0
0.046875 0.0625 0
0.046875 0.078125 0
0.046875 0.09375 0
0.046875 0.109375 0
0.046875 0.125 0
0.046875 0.140625 0
0.046875 0.15625 0
0.046875 0.171875 0
0.046875 0.1875 0
0.046875 0.203125 0
0.046875 0.21875 0
0.046875 0.234375 0
0.046875 0.25 0
0.046875 0.265625 0
0.046875 0.28125 0
0.046875 0.296875 0
0.046875 0.3125 0
0.046875 0.328125 0
0.046875 0.34375 0
0.046875 0.359375 0
0.046875 0.375 0
0.046875 0.390625 0
0.046875 0.40625 0
0.046875 0.421875 0
0.046875 0.4375 0
0.046875 0.453125 0
0.046875 0.46875 0
0.046875 0.484375 0
0.046875 0.5 0
0.046875 0.515625 0
0.046875 0.53125 0
0.046875 0.546875 0
0.046875 0.5625 0
0.046875 0.578125 0
0.046875 0.59375 0
0.046875 0.609375 0
0.046875 0.625 0
0.046875 0.640625 0
0.046875 0.65625 0
0.046875 0.671875 0
0.046875 0.6875 0
0.046875 0.703125 0
0.046875 0.71875 0
0.046875 0.734375 0
0.046875 0.75 0
0.046875 0.765625 0
0.046875 0.78125 0
0.046875 0.796875 0
0.046875 0.8125 0
0.046875 0.828125 0
0.046875 0.84375 0
0.046875 0.859375 0
0.046875 0.875 0
0.046875 0.890625 0
0.046875 0.90625 0
0.046875 0.921875 0
0.046875 0.9375 0
0.046875 0.953125 0
0.046875 0.96875 0
0.046875 0.984375 0
0.0625 0 0
0.0625 0.015625 0
0.0625 0.03125 0
0.0625 0.046875 0
0.0625 0.0625 0
0.0625 0.078125 0
0.0625 0.09375 0
0.0625 0.109375 0
0.0625 0.125 0
0.0625 0.140625 0
0.0625 0.15625 0
0.0625 0.171875 0
0.0625 0.1875 0
0.0625 0.203125 0
0.0625 0.21875 0
0.0625 0.234375 0
0.0625 0.25 0
0.0625 0.265625 0
0.0625 0.28125 0
0.0625 0.296875 0
0.0625 0.3125 0
0.0625 0.328125 0
0.0625 0.34375 0
0.0625 0.359375 0
0.0625 0.375 0
0.0625 0.390625 0
0.0625 0.40625 0
0.0625 0.421875 0
0.0625 0.4375 0
0.0625 0.453125 0
0.0625 0.46875 0
0.0625 0.484375 0
0.0625 0.5 0
0.0625 0.515625 0
0.0625 0.53125 0
0.0625 0.546875 0
0.0625 0.5625 0
0.0625 0.578125 0
0.0625 0.59375 0
0.0625 0.609375 0
0.0625 0.625 0
0.0625 0.640625 0
0.0625 0.65625 0
0.0625 0.671875 0
0.0625 0.6875 0
0.0625 0.703125 0
0.0625 0.71875 0
0.0625 0.734375 0
0.0625 0.75 0
0.0625 0.765625 0
0.0625 0.78125 0
0.0625 0.796875 0
0.0625 0.8125 0
0.0625 0.828125 0
0.0625 0.84375 0
0.0625 0.859375 0
0.0625 0.875 0
0.0625 0.890625 0
0.0625 0.90625 0
0.0625 0.921875 0
0.0625 0.9375 0
0.0625 0.953125 0
0.0625 0.96875 0
0.0625 0.984375 0
0.078125 0 0
0.078125 0.015625 0
0.078125 0.03125 0
0.078125 0.046875 0
0.078125 0.0625 0
0.078125 0.078125 0
0.078125 0.09375 0
0.078125 0.109375 0
0.078125 0.125 0
0.078125 0.140625 0
0.078125 0.15625 0
0.078125 0.171875 0
0.078125 0.1875 0
0.078125 0.203125 0
0.078125 0.21875 0
0.078125 0.234375 0
0.078125 0.25 0
0.078125 0.265625 0
0.078125 0.28125 0
0.078125 0.296875 0
0.078125 0.3125 0
0.078125 0.328125 0
0.078125 0.34375 0
0.078125 0.359375 0
0.078125 0.375 0
0.078125 0.390625 0
0.078125 0.40625 0
0.078125 0.421875 0
0.078125 0.4375 0
0.078125 0.453125 0
0.078125 0.46875 0
0.078125 0.484375 0
0.078125 0.5 0
0.078125 0.515625 0
0.078125 0.53125 0
0.078125 0.546875 0
0.078125 0.5625 0
0.078125 0.578125 0
0.078125 0.59375 0
0.078125 0.609375 0
0.078125 0.625 0
0.078125 0.640625 0
0.078125 0.65625 0
0.078125 0.671875 0
0.078125 0.6875 0
0.078125 0.703125 0
0.078125 0.71875 0
0.078125 0.734375 0
0.078125 0.75 0
0.078125 0.765625 0
0.078125 0.78125 0
0.078125 0.796875 0
0.078125 0.8125 0
0.078125 0.828125 0
0.078125 0.84375 0
0.078125 0.859375 0
0.078125 0.875 0
0.078125 0.890625 0
0.078125 0.90625 0
0.078125 0.921875 0
0.078125 0.9375 0
0.078125 0.953125 0
0.078125 0.96875 0
0.078125 0.984375 0
0.09375 0 0
0.09375 0.015625 0
0.09375 0.03125 0
0.09375 0.046875 0
0.09375 0.0625 0
0.09375 0.078125 0
0.09375 0.09375 0
0.09375 0.109375 0
0.09375 0.125 0
0.09375 0.140625 0
0.09375 0.15625 0
0.09375 0.171875 0
0.09375 0.1875 0
0.09375 0.203125 0
0.09375 0.21875 0
0.09375 0.234375 0
0.09375 0.25 0
0.09375 0.265625 0
0.09375 0.28125 0
0.09375 0.296875 0
0.09375 0.3125 0
0.09375 0.328125 0
0.09375 0.34375 0
0.09375 0.359375 0
0.09375 0.375 0
0.09375 0.390625 0
0.09375 0.40625 0
0.09375 0.421875 0
0.09375 0.4375 0
0.09375 0.453125 0
0.09375 0.46875 0
0.09375 0.484375 0
0.09375 0.5 0
0.09375 0.515625 0
0.09375 0.53125 0
0.09375 0.546875 0
0.09375 0.5625 0
0.09375 0.578125 0
0.09375 0.59375 0
0.09375 0.609375 0
0.09375 0.625 0
0.09375 0.640625 0
0.09375 0.65625 0
0.09375 0.671875 0
0.09375 0.6875 0
0.09375 0.703125 0
0.09375 0.71875 0
0.09375 0.734375 0
0.09375 0.75 0
0.09375 0.765625 0
0.09375 0.78125 0
0.09375 0.796875 0
0.09375 0.8125 0
0.09375 0.828125 0
0.09375 0.84375 0
0.09375 0.859375 0
0.09375 0.875 0
0.09375 0.890625 0
0.09375 0.90625 0
0.09375 0.921875 0
0.09375 0.9375 0
0.09375 0.953125 0
0.09375 0.96875 0
0.09375 0.984375 0
0.109375 0 0
0.109375 0.015625 0
0.109375 0.03125 0
0.109375 0.046875 0
0.109375 0.0625 0
0.109375 0.078125 0
0.109375 0.09375 0
0.109375 0.109375 0
0.109375 0.125 0
0.109375 0.140625 0
0.109375 0.15625 0
0.109375 0.171875 0
0.109375 0.1875 0
0.109375 0.203125 0
0.109375 0.21875 0
0.109375 0.234375 0
0.109375 0.25 0
0.109375 0.265625 0
0.109375 0.28125 0
0.109375 0.296875 0
0.109375 0.3125 0
0.109375 0.328125 0
0.109375 0.34375 0
0.109375 0.359375 0
0.109375 0.375 0
0.109375 0.390625 0
0.109375 0.40625 0
0.109375 0.421875 0
0.109375 0.4375 0
0.109375 0.453125 0
0.109375 0.46875 0
0.109375 0.484375 0
0.109375 0.5 0
0.109375 0.515625 0
0.109375 0.53125 0
0.109375 0.546875 0
0.109375 0.5625 0
0.109375 0.578125 0
0.109375 0.59375 0
0.109375 0.609375 0
0.109375 0.625 0
0.109375 0.640625 0
0.109375 0.65625 0
0.109375 0.671875 0
0.109375 0.6875 0
0.109375 0.703125 0
0.109375 0.71875 0
0.109375 0.734375 0
0.109375 0.75 0
0.109375 0.765625 0
0.109375 0.78125 0
0.109375 0.796875 0
0.109375 0.8125 0
0.109375 0.828125 0
0.109375 0.84375 0
0.109375 0.859375 0
0.109375 0.875 0
0.109375 0.890625 0
0.109375 0.90625 0
0.109375 0.921875 0
0.109375 0.9375 0
0.109375 0.953125 0
0.109375 0.96875 0
0.109375 0.984375 0
0.125 0 0
0.125 0.015625 0
0.125 0.03125 0
0.125 0.046875 0
0.125 0.0625 0
0.125 0.078125 0
0.125 0.09375 0
0.125 0.109375 0
0.125 0.125 0
0.125 0.140625 0
0.125 0.15625 0
0.125 0.171875 0
0.125 0.1875 0
0.125 0.203125 0
0.125 0.21875 0
0.125 0.234375 0
0.125 0.25 0
0.125 0.265625 0
0.125 0.28125 0
0.125 0.296875 0
0.125 0.3125 0
0.125 0.328125 0
0.125 0.34375 0
0.125 0.359375 0
0.125 0.375 0
0.125 0.390625 0
0.125 0.40625 0
0.125 0.421875 0
0.125 0.4375 0
0.125 0.453125 0
0.125 0.46875 0
0.125 0.484375 0
0.125 0.5 0
0.125 0.515625 0
0.125 0.53125 0
0.125 0.546875 0
0.125 0.5625 0
0.125 0.578125 0
0.125 0.59375 0
0.125 0.609375 0
0.125 0.625 0
0.125 0.640625 0
0.125 0.65625 0
0.125 0.671875 0
0.125 0.6875 0
0.125 0.703125 0
0.125 0.71875 0
0.125 0.734375 0
0.125 0.75 0
0.125 0.765625 0
0.125 0.78125 0
0.125 0.796875 0
0.125 0.8125 0
0.125 0.828125 0
[...]
POINT_DATA 4096
SCALARS values float
LOOKUP_TABLE default
0
0
0
0
0
0
0
0
0
0
0
0
0
0
0
0
0
0
0
0
0
0
0
0
0
0
0
0
0
0
0
0
0
0
0
0
0
0
0
0
0
0
0
0
0
0
0
0
0
0
0
0
0
0
0
0
0
0
0
0
0
0
0
0
0
0.0099216597
0.019744693
0.029371455
0.03870625
0.047656288
0.056132602
0.064050935
0.07133258
0.077905155
0.083703332
0.088669477
0.092754229
0.095916989
0.098126321
0.099360269
0.099606568
0.098862774
0.09713628
0.094444249
0.090813439
0.086279939
0.080888809
0.074693632
0.067755984
0.060144817
0.051935778
0.043210456
0.03405557
0.024562106
0.014824418
0.0049392834
-0.004995054
-0.014879862
-0.024616903
-0.034109405
-0.04326303
-0.051986808
-0.060194041
-0.067803163
-0.074738558
-0.0809313
-0.086319849
-0.090850653
-0.09447869
-0.097167904
-0.098891574
-0.099632572
-0.099383536
-0.098146943
-0.095935083
-0.092769938
-0.088682962
-0.083714771
-0.077914734
-0.071340487
-0.06405736
-0.056137723
-0.047660272
-0.038709246
-0.029373587
-0.019746059
-0.0099223257
0
0
0.019744728
0.039293182
0.058451042
0.077027869
0.094839002
0.11170739
0.12746536
0.14195628
0.1550361
0.16657482
0.17645774
0.18458663
0.1908807
0.19527738
0.19773298
0.19822311
0.19674288
0.19330702
0.18794968
0.18072411
0.17170214
0.16097343
0.14864461
0.13483824
0.11969153
0.10335501
0.085991066
0.067772263
0.048879675
0.029501068
0.0098290379
-0.0099409052
-0.029612279
-0.048989581
-0.067880233
-0.086096496
-0.10345733
-0.11979021
-0.13493281
-0.14873464
-0.16105856
-0.17178207
-0.18079862
-0.1880186
-0.19337027
-0.19680045
-0.19827505
-0.19777943
-0.1953185
-0.19091674
-0.18461789
-0.17648454
-0.16659751
-0.15505507
-0.14197191
-0.12747803
-0.11171747
-0.094846823
-0.077033737
-0.058455209
-0.039295847
-0.019746026
0
0
0.029371592
0.058451214
0.086949797
0.11458405
0.14107928
0.16617211
0.18961311
0.21116928
0.23062634
0.2477909
0.26249234
0.27458454
0.28394731
0.2904876
0.2941404
0.29486942
0.29266741
0.28755627
0.2795868
0.26883822
0.25541737
0.23945765
0.22111767
0.20057973
0.17804796
0.15374629
0.12791625
0.10081457
0.072710595
0.043883647
0.014620223
-0.014788844
-0.044051272
-0.07287624
-0.10097728
-0.12807511
-0.15390043
-0.17819658
-0.20072212
-0.22125317
-0.23958571
-0.25553756
-0.26895018
-0.27969029
-0.28765117
-0.2927537
-0.29494719
-0.29420984
-0.29054899
-0.28400102
-0.27463102
-0.26253208
-0.24782446
-0.23065431
-0.21119224
-0.18963166
-0.1661868
-0.14109064
-0.11459254
-0.086955802
-0.058455042
-0.029373454
0
0
0.038706594
0.077028419
0.11458453
0.1510016
0.18591763
0.21898552
0.24987659
0.27828376
0.30392467
0.32654444
0.34591826
0.36185354
0.3741919
0.38281072
0.38762433
0.38858491
0.3856829
0.37894718
0.36844469
0.35427983
0.33659339
0.31556117
0.29139222
0.26432675
0.23463377
0.2026084
0.16856893
0.13285367
0.095817585
0.057828767
0.019264769
-0.019491141
-0.058053789
-0.096039925
-0.13307203
-0.16878207
-0.20281516
-0.23483306
-0.26451759
-0.29157374
-0.31573263
-0.33675417
-0.35442947
-0.36858287
-0.37907374
-0.38579782
-0.3886883
-0.38771647
-0.382892
-0.37426283
-0.36191473
-0.3459704
-0.32658831
-0.30396105
-0.27831348
-0.24990045
-0.21900431
-0.18593206
-0.15101232
-0.11459207
-0.077033202
-0.038708912
0
0
0.047656976
0.094840205
0.14108065
0.18591865
0.2289085
0.26962284
0.30765697
0.34263281
0.3742027
0.40205284
0.42590641
0.44552632
0.46071756
0.47132915
0.47725562
0.47843809
0.47486481
0.46657131
0.45364004
0.43619955
0.41442317
0.38852736
0.35876952
0.32544539
0.28888621
0.24945533
0.20754465
0.1635707
0.11797055
0.071197376
0.023716055
-0.024001526
-0.071481126
-0.11825088
-0.16384596
-0.20781326
-0.24971579
-0.28913715
-0.32568555
-0.35899779
-0.38874281
-0.41462501
-0.43638719
-0.4538131
-0.46672956
-0.47500823
-0.47856685
-0.47737008
-0.47142981
-0.4608051
-0.44560153
-0.4259702
-0.4021062
-0.37424667
-0.34266846
-0.30768537
-0.269645
-0.22892536
-0.18593106
-0.1410893
-0.094845654
-0.047659604
0
0
0.056133806
0.11170959
0.16617489
0.21898826
0.26962472
0.31758089
0.36238009
0.40357698
0.44076206
0.47356573
0.50166192
0.52477136
0.54266439
0.55516315
0.56214343
0.56353588
0.55932667
0.54955766
0.53432597
0.51378299
0.48813293
0.45763074
0.4225796
0.38332787
0.34026571
0.29382108
0.24445562
0.19265994
0.13894885
0.083856136
0.02792936
-0.028275652
-0.084200312
-0.13928882
-0.19299369
-0.24478118
-0.29413663
-0.34056954
-0.38361846
-0.42285558
-0.45789095
-0.48837643
-0.51400905
-0.53453409
-0.54974761
-0.55949843
-0.56368967
-0.56227969
-0.55528253
-0.54276773
-0.52485968
-0.50173635
-0.47362754
-0.44081256
-0.40361752
-0.36241201
-0.31760549
-0.26964317
-0.21900165
-0.1661841
-0.11171533
-0.056136552
0
0
0.064052866
0.12746898
0.18961792
0.24988186
0.30766174
0.36238318
0.41350221
0.4605107
0.50294138
0.54037248
0.57243195
0.59880114
0.61921797
0.63347953
0.64144408
0.64303248
0.63822897
0.62708133
0.60970037
0.58625888
0.55698985
0.52218423
0.48218795
0.43739855
0.38826121
0.3352643
0.27893455
0.21983182
0.15854351
0.095678743
0.031862313
-0.032271542
-0.096085433
-0.15894515
-0.22022598
-0.2793189
-0.33563663
-0.38861949
-0.43774093
-0.48251279
-0.52249015
-0.55727572
-0.58652383
-0.60994383
-0.62730299
-0.63842885
-0.64321084
-0.64160148
-0.63361678
-0.61933612
-0.59890142
-0.57251578
-0.54044141
-0.50299705
-0.46055479
-0.41353637
-0.362409
-0.30768073
-0.24989533
-0.18962698
-0.12747452
-0.064055484
0
0
0.071335482
0.1419618
0.21117684
0.27829253
0.34264167
0.40358456
0.46051542
0.5128683
0.56012281
0.60180925
0.63751327
0.66688
0.68961755
0.70549996
0.7143694
0.71613773
0.71078743
0.69837169
0.67901396
0.65290666
0.62030932
0.58154593
0.5370018
0.48711966
0.43239531
0.37337264
0.3106383
0.24481578
0.17655928
0.10654718
0.035475302
-0.035950007
-0.10701889
-0.17702503
-0.2452727
-0.31108364
-0.3738038
-0.43280987
-0.48751546
-0.5373769
-0.5818987
-0.62063842
-0.65321109
-0.67929303
-0.69862507
-0.71101514
-0.71634012
-0.71454714
-0.70565405
-0.68974925
-0.66699083
-0.63760496
-0.60188369
-0.56018199
-0.51291426
-0.4605502
-0.40361014
-0.34265985
-0.27830496
-0.21118489
-0.14196655
-0.071337667
0
0
0.077909317
0.1550441
0.2306375
0.30393804
0.374217
0.44077575
0.50295264
0.56012959
0.61173825
0.65726563
0.69625922
0.72833144
0.75316353
0.77050872
0.78019463
0.78212505
0.77628082
0.76272009
0.74157766
0.71306374
0.67746174
0.63512557
0.58647601
0.53199664
0.47222892
0.40776691
0.33925128
0.26736301
0.19281658
0.11635288
0.038731864
-0.039275042
-0.11689257
-0.19334932
-0.26788545
-0.33976021
-0.40825929
-0.47270195
-0.53244777
-0.58690301
-0.63552652
-0.67783509
-0.71340831
-0.74189268
-0.76300517
-0.77653601
-0.78235078
-0.78039172
-0.77067836
-0.75330726
-0.72845108
-0.69635687
-0.65734357
-0.61179888
-0.5601754
-0.5029861
-0.44079925
-0.37423277
-0.30394806
-0.23064346
-0.15504731
-0.077910691
0
0
0.083709083
0.16658594
0.24780663
0.32656369
0.40207415
0.47358734
0.54039235
0.6018251
0.65727493
0.70619066
0.74808611
0.78254486
0.80922446
0.82785975
0.83826558
0.84033856
0.83405816
0.81948684
0.7967695
0.76613198
0.72787882
0.68239028
0.6301185
0.57158304
0.5073657
0.43810476
0.36448859
0.28724887
0.20715326
0.12499782
0.041599045
-0.042214193
-0.12560892
-0.20775634
-0.28784004
-0.36506413
-0.43866117
-0.50789974
-0.57209176
-0.63059931
-0.68284097
-0.7282976
-0.76651748
-0.79712085
-0.81980361
-0.8343404
-0.84058681
-0.83848083
-0.82804343
-0.80937839
-0.78267125
-0.74818744
-0.70626968
-0.65733453
-0.60186828
-0.5404221
-0.47360654
-0.4020855
-0.32656961
-0.24780917
-0.16658671
-0.083709184
0
0
0.088677199
0.17647275
0.26251376
0.34594482
0.42593647
0.50169348
0.57246272
0.63754071
0.69628054
0.74809835
0.79247908
0.82898166
0.85724331
0.87698318
0.88800514
0.8901997
0.88354514
0.86810765
0.84404075
0.81158371
0.77105917
0.72286997
0.66749511
0.60548498
0.53745594
0.46408415
0.38609884
0.30427513
0.21942623
0.13239544
0.044047719
-0.044738878
-0.13308195
-0.22010352
-0.30493874
-0.38674451
-0.46470784
-0.53805392
-0.60605388
-0.66803193
-0.72337219
-0.77152472
-0.81201104
-0.84442884
-0.86845603
-0.8838539
-0.89046948
-0.88823712
-0.87717906
-0.85740526
-0.82911229
-0.79258136
-0.74817554
-0.69633613
-0.63757828
-0.57248587
-0.50170568
-0.42594099
-0.34594459
-0.26251128
-0.17646996
-0.088675462
0
0
0.092764361
0.18460639
0.27461292
0.36188907
0.44556712
0.52481517
0.59884537
0.66692181
0.72836776
0.78257248
0.82899721
0.86718054
0.89674303
0.9173909
0.92891903
0.93121292
0.92424986
0.90809915
0.88292141
0.84896695
0.80657332
0.75616195
0.69823392
0.63336504
0.56220005
0.48544631
0.40386666
0.31827194
0.22951285
0.13847155
0.046052872
-0.046824685
-0.13923806
-0.23026882
-0.31901227
-0.40458648
-0.486141
-0.56286536
-0.63399709
-0.69882931
-0.75671776
-0.8070872
-0.84943712
-0.88334671
-0.90847906
-0.9245845
-0.93150305
-0.92916604
-0.9175968
-0.89691038
-0.86731243
-0.82909716
-0.78264438
-0.72841575
-0.66695017
-0.59885843
-0.52481711
-0.44556189
-0.36188021
-0.27460345
-0.1845987
-0.092760099
0
0
0.09593004
0.1909062
0.28398411
0.37423829
0.46077137
0.54272302
0.61927851
0.68967679
0.75321809
0.80927082
0.85727787
0.89676214
0.92733125
0.94868148
0.96060071
0.96297061
0.95576772
0.93906376
0.91302484
0.87790988
0.83406797
0.78193493
0.72202898
0.65494559
0.58135154
0.50197831
0.4176148
0.3290995
0.23731217
0.14316505
0.047593844
-0.048451616
-0.14401679
-0.23815191
-0.32992144
-0.41841338
-0.50274828
-0.58208804
-0.65564422
-0.72268583
-0.78254669
-0.83463194
-0.87842405
-0.91348788
-0.93947508
-0.95612748
-0.96327969
-0.96086076
-0.94889484
-0.92750094
-0.89689177
-0.85737161
-0.80933327
-0.75325418
-0.68969164
-0.61927727
-0.54271075
-0.46075283
-0.37421777
-0.28396529
-0.19089197
-0.095922412
0
0
0.098142886
0.19530981
0.29053452
0.38287014
0.47139855
0.55523953
0.63355955
0.70558002
0.77058504
0.82792847
0.87704041
0.9174328
0.94870426
0.97054412
0.98273544
0.98515718
0.97778543
0.96069359
0.93405166
0.89812456
0.85326948
0.79993232
0.73864329
0.67001161
0.59471945
0.51351518
0.42720591
0.33664947
0.24274591
0.14642851
0.048654526
-0.049604296
-0.14737142
-0.24367521
-0.33755858
-0.42808849
-0.51436529
-0.59553155
-0.67078069
-0.73936493
-0.80060272
-0.85388557
-0.89868404
-0.93455303
-0.96113616
-0.9781694
-0.98548359
-0.98300617
-0.97076192
-0.94887264
-0.91755601
-0.87712334
-0.82797655
-0.77060411
-0.70557619
-0.63353899
-0.5552083
-0.4713624
-0.38283429
-0.29050344
-0.19528703
-0.098130866
0
0
0.099381047
0.1977737
0.29419944
0.38769932
0.47734359
0.56224091
0.64154719
0.71447405
0.78029657
0.83836053
0.88808888
0.92898748
0.96064995
0.98276178
0.99510335
0.99755218
0.99008411
0.97277353
0.94579265
0.90940976
0.86398662
0.80997478
0.74791117
0.67841272
0.60217023
0.51994153
0.4325439
0.340846
0.24575923
0.14822862
0.049223513
-0.050272134
-0.14926949
-0.24678468
-0.34184858
-0.43351645
-0.5208773
-0.60306296
-0.6792567
-0.74870137
-0.8107069
-0.86465715
-0.91001608
-0.94633302
-0.97324719
-0.99049125
-0.99789401
-0.99538205
-0.9829805
-0.96081279
-0.92909937
-0.88815557
-0.8383884
-0.78029253
-0.71444536
-0.64150123
-0.56218497
-0.47728463
-0.38764367
-0.29415254
-0.19773991
-0.099363378
0
0
0.099632396
0.19827375
0.29494292
0.38867844
0.47854812
0.56365831
0.6431628
0.71627122
0.78225688
0.84046397
0.89031405
0.93131183
0.96304999
0.98521331
0.99758172
1.0000325
0.99254151
0.9751834
0.94813088
0.911653
0.86611245
0.81196198
0.74973992
0.68006478
0.60362912
0.52119269
0.43357487
0.3416465
0.24632127
0.14854658
0.049294206
-0.050449436
-0.14969305
-0.24745032
-0.34274972
-0.43464416
-0.5222204
-0.60460815
-0.68098868
-0.75060299
-0.81275931
-0.86684005
-0.91230787
-0.94871103
-0.97568793
-0.99297063
-1.0003876
-0.99786522
-0.98542887
-0.96320233
-0.93140668
-0.89035811
-0.84046472
-0.78222248
-0.71621028
-0.64308415
-0.56357072
-0.47846001
-0.38859752
-0.29487588
-0.19822593
-0.099607528
0
0
0.098894659
0.19680541
0.29275819
0.38579852
0.47500099
0.55947855
0.63839123
0.71095458
0.77644733
0.83421865
0.88369448
0.92438331
0.95588098
0.97787469
0.99014612
0.99257357
0.98513316
0.9678991
0.94104287
0.9048316
0.85962536
0.80587361
0.74411071
0.67495061
0.59908079
0.51725537
0.43028766
0.33904205
0.24442543
0.1473782
0.04886487
-0.050135473
-0.14863892
-0.24566651
-0.34025398
-0.43146132
-0.51838212
-0.60015259
-0.67596016
-0.74505153
-0.80674014
-0.86041306
-0.905537
-0.94166369
-0.96843428
-0.9855829
-0.99293937
-0.9904308
-0.97808238
-0.95601708
-0.92445445
-0.88370841
-0.83418412
-0.77637396
-0.71085256
-0.63827112
-0.5593509
-0.47487602
-0.38568565
-0.29266567
-0.19673984
-0.098860676
0
0
0.09717546
0.19338384
0.28766776
0.37908913
0.46673854
0.54974428
0.62728103
0.69857802
0.76292666
0.81968753
0.86829674
0.90827145
0.93921468
0.96081923
0.97287069
0.97524963
0.96793268
0.95099286
0.92459877
0.88901296
0.84458933
0.79176955
0.73107875
0.66312025
0.58856956
0.50816773
0.42271392
0.33305746
0.24008948
0.14473397
0.047938639
-0.049334497
-0.1461187
-0.24145209
-0.33438725
-0.42400059
-0.50940154
-0.58974144
-0.66422193
-0.73210289
-0.79270983
-0.84544056
-0.88977119
-0.92526133
-0.95155849
-0.96840154
-0.97562335
-0.97315244
-0.96101364
-0.93932792
-0.90831111
-0.86827178
-0.81960814
-0.7628041
-0.69842437
-0.62710889
-0.54956637
-0.46656727
-0.37893609
-0.28754313
-0.19329587
-0.097129969
0
0
0.094492263
0.18804376
0.2797232
0.36861817
0.4538442
0.53455363
0.60994397
0.67926586
0.74183042
0.79701611
0.84427478
0.88313713
0.91321735
0.93421688
0.94592743
0.94823298
0.94111098
0.92463253
0.89896169
0.86435386
0.82115321
0.7697893
0.71077279
0.64469037
0.57219894
0.49401905
0.4109278
0.32375106
0.23335529
0.14063893
0.046523474
-0.048055715
-0.14215866
-0.23485015
-0.325209
-0.41233723
-0.49536899
-0.57347915
-0.64589153
-0.71188656
-0.77080851
-0.82207194
-0.86516756
-0.89966727
-0.92522845
-0.94159732
-0.94861148
-0.94620157
-0.93439186
-0.91330012
-0.88313635
-0.84420073
-0.79688059
-0.7416466
-0.67904798
-0.60970707
-0.53431304
-0.45361506
-0.36841476
-0.27955822
-0.18792757
-0.094432253
0
0
0.090872234
0.18083919
0.26900479
0.35449124
0.4364478
0.51405927
0.58655401
0.65321157
0.7133697
0.76643093
0.81186839
0.84923102
0.87814802
0.89833252
0.9095844
0.91179227
0.9049346
0.88907991
0.86438609
0.83109886
0.78954929
0.74015054
0.68339375
0.61984317
0.55013052
0.47494878
0.39504522
0.31121405
0.22428847
0.13513244
0.044632069
-0.046313205
-0.13679953
-0.22592762
-0.31281172
-0.39658839
-0.47642508
-0.55152842
-0.62115212
-0.68460433
-0.74125459
-0.79054007
-0.83197112
-0.86513623
-0.88970604
-0.90543666
-0.91217208
-0.90984573
-0.89848114
-0.87819169
-0.84917951
-0.81173344
-0.76622613
-0.71311036
-0.65291445
-0.586237
-0.51374087
-0.43614652
-0.35422476
-0.26878907
-0.18068741
-0.090793871
0
0
0.086352029
0.171843
0.25562075
0.33685073
0.41472434
0.48846698
0.55734562
0.62067593
0.67782898
0.72823739
0.77140084
0.80689106
0.834356
0.85352334
0.86420314
0.8662898
0.85976303
0.8446881
0.8212152
0.78957792
0.75009096
0.70314699
0.64921277
0.58882449
0.52258247
0.45114517
0.37522267
0.2955696
0.21297766
0.12826773
0.042281713
-0.044125796
-0.13009605
-0.21477464
-0.29732005
-0.37691194
-0.45275937
-0.5241086
-0.59025066
-0.65052832
-0.70434266
-0.75115903
-0.79051236
-0.82201178
-0.84534452
-0.86027899
-0.86666715
-0.8644459
-0.85363781
-0.83435079
-0.8067771
-0.7711914
-0.72794801
-0.67747736
-0.62028169
-0.55692999
-0.48805228
-0.41433322
-0.33650524
-0.25534111
-0.17164617
-0.086250359
0
0
0.080977507
0.16114633
0.23970641
0.31587456
0.38889241
0.45803373
0.5226115
0.58198447
0.63556339
0.68281668
0.72327565
0.75653912
0.78227733
0.80023524
0.81023504
0.81217794
0.80604514
0.79189805
0.76987763
0.74020308
0.7031696
0.65914549
0.60856849
0.55194143
0.48982725
0.42284339
0.35165566
0.27697165
0.19953367
0.12011136
0.039494099
-0.041516892
-0.12211649
-0.20150368
-0.27888951
-0.35350494
-0.42460846
-0.49149351
-0.55349547
-0.60999825
-0.66044047
-0.70432099
-0.74120393
-0.77072296
-0.79258502
-0.80657317
-0.81254879
-0.81045293
-0.80030696
-0.78221229
-0.75634944
-0.72297618
-0.68242502
-0.63509984
-0.58147188
-0.52207494
-0.45750005
-0.38838941
-0.31542986
-0.23934586
-0.16089212
-0.080846018
0
0
0.074803428
0.14885793
0.22142303
0.29177463
0.35921215
0.42306517
0.48269974
0.53752425
0.58699513
0.63062202
0.66797259
0.69867679
0.72243047
0.73899844
0.74821681
0.7499946
0.74431472
0.73123408
0.71088309
0.68346436
0.64925067
0.60858231
0.56186366
0.50955921
0.45218894
0.39032314
0.32457676
0.2556033
0.18408832
0.11074259
0.036295095
-0.038514258
-0.11294198
-0.18624841
-0.257705
-0.32660165
-0.3922537
-0.45400876
-0.51125317
-0.56341815
-0.60998541
-0.65049234
-0.68453657
-0.71178001
-0.73195222
-0.74485305
-0.75035473
-0.74840306
-0.739018
-0.72229349
-0.69839653
-0.66756549
-0.6301078
-0.58639683
-0.53686821
-0.48201541
-0.42238471
-0.35856965
-0.29120485
-0.22095941
-0.14852992
-0.074633358
0
0
0.067893156
0.13510342
0.20095669
0.26479502
0.32598289
0.38391278
0.43801041
0.48774002
0.5326093
0.57217411
0.60604287
0.63388036
0.65541112
0.67042217
0.67876517
0.6803579
0.67518512
0.66329875
0.64481731
0.61992485
0.58886905
0.55195879
0.50956112
0.46209757
0.41004001
0.35390591
0.29425328
0.23167502
0.16679315
0.10025252
0.032714465
-0.035149767
-0.10266572
-0.1691624
-0.23397897
-0.2964713
-0.35601838
-0.41202848
-0.46394506
-0.51125226
-0.55348008
-0.59020902
-0.62107426
-0.64576932
-0.66404906
-0.67573217
-0.68070298
-0.67891258
-0.6703794
-0.65518895
-0.63349307
-0.60550841
-0.57151428
-0.53184992
-0.48691109
-0.43714615
-0.38305143
-0.32516615
-0.26406672
-0.20036053
-0.13467931
-0.067672372
0
0
0.060318524
0.12002483
0.17851696
0.23520996
0.28954041
0.34097038
0.3889916
0.43312978
0.47294902
0.50805593
0.5381036
0.56279507
0.58188628
0.59518859
0.60257069
0.60395997
0.5993432
0.58876678
0.57233622
0.55021517
0.52262375
0.48983641
0.45217922
0.41002658
0.36379756
0.31395172
0.26098455
0.20542251
0.14781788
0.088743179
0.028785557
-0.031459094
-0.091392037
-0.15041765
-0.20794933
-0.26341535
-0.31626453
-0.3659717
-0.41204295
-0.45402051
-0.49148734
-0.52407126
-0.55144862
-0.57334759
-0.58955084
-0.59989767
-0.60428569
-0.60267181
-0.59507269
-0.58156463
-0.56228281
-0.53741999
-0.50722465
-0.47199855
-0.43209375
-0.38790916
-0.33988646
-0.28850557
-0.23427946
-0.17774835
-0.11947333
-0.060029571
0
0
0.052160134
0.10378033
0.15433584
0.2033217
0.25025376
0.29467029
0.33613483
0.37423971
0.40860992
0.43890682
0.46483167
0.48612865
0.50258756
0.51404597
0.52039093
0.52156009
0.51754244
0.50837839
0.4941594
0.4750271
0.45117191
0.42283113
0.3902866
0.35386192
0.31391921
0.27085554
0.22509899
0.17710436
0.12734869
0.076326516
0.024544941
-0.027481396
-0.079235437
-0.13020284
-0.1798771
-0.22776456
-0.27338936
-0.31629812
-0.35606448
-0.39229334
-0.42462477
-0.45273759
-0.47635262
-0.49523537
-0.50919847
-0.51810348
-0.52186232
-0.52043813
-0.5138457
-0.50215131
-0.48547216
-0.46397522
-0.43787564
-0.40743474
-0.37295742
-0.33478929
-0.29331324
-0.24894556
-0.20213143
-0.15333958
-0.10305601
-0.051776601
0
0
0.043508854
0.086545116
0.12866686
0.16945797
0.20852164
0.24547882
0.27997002
0.31165855
0.3402341
0.3654161
0.38695686
0.40464425
0.41830393
0.4278013
0.43304284
0.43397715
0.43059549
0.42293191
0.41106292
0.39510677
0.37522229
0.35160727
0.32449658
0.29415978
0.26089849
0.22504335
0.18695078
0.14699942
0.10558636
0.063123222
0.020032032
-0.023258937
-0.066319442
-0.10872154
-0.15004385
-0.18987571
-0.22782131
-0.2635036
-0.29656801
-0.32668604
-0.35355846
-0.37691836
-0.39653374
-0.41220985
-0.42379116
-0.43116287
-0.4342521
-0.4330286
-0.42750514
-0.41773735
-0.40382325
-0.38590233
-0.36415429
-0.33879731
-0.31008613
-0.27830963
-0.24378828
-0.20687103
-0.16793182
-0.12736502
-0.085579134
-0.042987994
0
0
0.034470753
0.068514147
0.10178434
0.13396893
0.16476802
0.19389108
0.22105971
0.24601144
0.26850351
0.288316
0.30525459
0.31915278
0.32987382
0.33731218
0.34139471
0.34208144
0.33936603
0.33327582
0.32387165
0.31124721
0.29552817
0.27687091
0.25546099
0.23151129
0.20525992
0.17696786
0.14691634
0.11540407
0.082744259
0.04926153
0.015288662
-0.018836701
-0.052775408
-0.08619017
-0.11874892
-0.15012809