# vtk DataFile Version 3.0
vtk output
ASCII
DATASET STRUCTURED_GRID
DIMENSIONS 64 64 1
POINTS 4096 float
0 0 0
0 0.015625 0
0 0.03125 0
0 0.046875 0
0 0.0625 0
0 0.078125 0
0 0.09375 0
0 0.109375 0
0 0.125 0
0 0.140625 0
0 0.15625 0
0 0.171875 0
0 0.1875 0
0 0.203125 0
0 0.21875 0
0 0.234375 0
0 0.25 0
0 0.265625 0
0 0.28125 0
0 0.296875 0
0 0.3125 0
0 0.328125 0
0 0.34375 0
0 0.359375 0
0 0.375 0
0 0.390625 0
0 0.40625 0
0 0.421875 0
0 0.4375 0
0 0.453125 0
0 0.46875 0
0 0.484375 0
0 0.5 0
0 0.515625 0
0 0.53125 0
0 0.546875 0
0 0.5625 0
0 0.578125 0
0 0.59375 0
0 0.609375 0
0 0.625 0
0 0.640625 0
0 0.65625 0
0 0.671875 0
0 0.6875 0
0 0.703125 0
0 0.71875 0
0 0.734375 0
0 0.75 0
0 0.765625 0
0 0.78125 0
0 0.796875 0
0 0.8125 0
0 0.828125 0
0 0.84375 0
0 0.859375 0
0 0.875 0
0 0.890625 0
0 0.90625 0
0 0.921875 0
0 0.9375 0
0 0.953125 0
0 0.96875 0
0 0.984375 0
0.015625 0 0
0.015625 0.015625 0
0.015625 0.03125 0
0.015625 0.046875 0
0.015625 0.0625 0
0.015625 0.078125 0
0.015625 0.09375 0
0.015625 0.109375 0
0.015625 0.125 0
0.015625 0.140625 0
0.015625 0.15625 0
0.015625 0.171875 0
0.015625 0.1875 0
0.015625 0.203125 0
0.015625 0.21875 0
0.015625 0.234375 0
0.015625 0.25 0
0.015625 0.265625 0
0.015625 0.28125 0
0.015625 0.296875 0
0.015625 0.3125 0
0.015625 0.328125 0
0.015625 0.34375 0
0.015625 0.359375 0
0.015625 0.375 0
0.015625 0.390625 0
0.015625 0.40625 0
0.015625 0.421875 0
0.015625 0.4375 0
0.015625 0.453125 0
0.015625 0.46875 0
0.015625 0.484375 0
0.015625 0.5 0
0.015625 0.515625 0
0.015625 0.53125 0
0.015625 0.546875 0
0.015625 0.5625 0
0.015625 0.578125 0
0.015625 0.59375 0
0.015625 0.609375 0
0.015625 0.625 0
0.015625 0.640625 0
0.015625 0.65625 0
0.015625 0.671875 0
0.015625 0.6875 0
0.015625 0.703125 0
0.015625 0.71875 0
0.015625 0.734375 0
0.015625 0.75 0
0.015625 0.765625 0
0.015625 0.78125 0
0.015625 0.796875 0
0.015625 0.8125 0
0.015625 0.828125 0
0.015625 0.84375 0
0.015625 0.859375 0
0.015625 0.875 0
0.015625 0.890625 0
0.015625 0.90625 0
0.015625 0.921875 0
0.015625 0.9375 0
0.015625 0.953125 0
0.015625 0.96875 0
0.015625 0.984375 0
0.03125 0 0
0.03125 0.015625 0
0.03125 0.03125 0
0.03125 0.046875 0
0.03125 0.0625 0
0.03125 0.078125 0
0.03125 0.09375 0
0.03125 0.109375 0
0.03125 0.125 0
0.03125 0.140625 0
0.03125 0.15625 0
0.03125 0.171875 0
0.03125 0.1875 0
0.03125 0.203125 0
0.03125 0.21875 0
0.03125 0.234375 0
0.03125 0.25 0
0.03125 0.265625 0
0.03125 0.28125 0
0.03125 0.296875 0
0.03125 0.3125 0
0.03125 0.328125 0
0.03125 0.34375 0
0.03125 0.359375 0
0.03125 0.375 0
0.03125 0.390625 0
0.03125 0.40625 0
0.03125 0.421875 0
0.03125 0.4375 0
0.03125 0.453125 0
0.03125 0.46875 0
0.03125 0.484375 0
0.03125 0.5 0
0.03125 0.515625 0
0.03125 0.53125 0
0.03125 0.546875 0
0.03125 0.5625 0
0.03125 0.578125 0
0.03125 0.59375 0
0.03125 0.609375 0
0.03125 0.625 0
0.03125 0.640625 0
0.03125 0.65625 0
0.03125 0.671875 0
0.03125 0.6875 0
0.03125 0.703125 0
0.03125 0.71875 0
0.03125 0.734375 0
0.03125 0.75 0
0.03125 0.765625 0
0.03125 0.78125 0
0.03125 0.796875 0
0.03125 0.8125 0
0.03125 0.828125 0
0.03125 0.84375 0
0.03125 0.859375 0
0.03125 0.875 0
0.03125 0.890625 0
0.03125 0.90625 0
0.03125 0.921875 0
0.03125 0.9375 0
0.03125 0.953125 0
0.03125 0.96875 0
0.03125 0.984375 0
0.046875 0 0
0.046875 0.015625 0
0.046875 0.03125 0
0.046875 0.046875 0
0.046875 0.0625 0
0.046875 0.078125 0
0.046875 0.09375 0
0.046875 0.109375 0
0.046875 0.125 0
0.046875 0.140625 0
0.046875 0.15625 0
0.046875 0.171875 0
0.046875 0.1875 0
0.046875 0.203125 0
0.046875 0.21875 0
0.046875 0.234375 0
0.046875 0.25 0
0.046875 0.265625 0
0.046875 0.28125 0
0.046875 0.296875 0
0.046875 0.3125 0
0.046875 0.328125 0
0.046875 0.34375 0
0.046875 0.359375 0
0.046875 0.375 0
0.046875 0.390625 0
0.046875 0.40625 0
0.046875 0.421875 0
0.046875 0.4375 0
0.046875 0.453125 0
0.046875 0.46875 0
0.046875 0.484375 0
0.046875 0.5 0
0.046875 0.515625 0
0.046875 0.53125 0
0.046875 0.546875 0
0.046875 0.5625 0
0.046875 0.578125 0
0.046875 0.59375 0
0.046875 0.609375 0
0.046875 0.625 0
0.046875 0.640625 0
0.046875 0.65625 0
0.046875 0.671875 0
0.046875 0.6875 0
0.046875 0.703125 0
0.046875 0.71875 0
0.046875 0.734375 0
0.046875 0.75 0
0.046875 0.765625 0
0.046875 0.78125 0
0.046875 0.796875 0
0.046875 0.8125 0
0.046875 0.828125 0
0.046875 0.84375 0
0.046875 0.859375 0
0.046875 0.875 0
0.046875 0.890625 0
0.046875 0.90625 0
0.046875 0.921875 0
0.046875 0.9375 0
0.046875 0.953125 0
0.046875 0.96875 0
0.046875 0.984375 0
0.0625 0 0
0.0625 0.015625 0
0.0625 0.03125 0
0.0625 0.046875 0
0.0625 0.0625 0
0.0625 0.078125 0
0.0625 0.09375 0
0.0625 0.109375 0
0.0625 0.125 0
0.0625 0.140625 0
0.0625 0.15625 0
0.0625 0.171875 0
0.0625 0.1875 0
0.0625 0.203125 0
0.0625 0.21875 0
0.0625 0.234375 0
0.0625 0.25 0
0.0625 0.265625 0
0.0625 0.28125 0
0.0625 0.296875 0
0.0625 0.3125 0
0.0625 0.328125 0
0.0625 0.34375 0
0.0625 0.359375 0
0.0625 0.375 0
0.0625 0.390625 0
0.0625 0.40625 0
0.0625 0.421875 0
0.0625 0.4375 0
0.0625 0.453125 0
0.0625 0.46875 0
0.0625 0.484375 0
0.0625 0.5 0
0.0625 0.515625 0
0.0625 0.53125 0
0.0625 0.546875 0
0.0625 0.5625 0
0.0625 0.578125 0
0.0625 0.59375 0
0.0625 0.609375 0
0.0625 0.625 0
0.0625 0.640625 0
0.0625 0.65625 0
0.0625 0.671875 0
0.0625 0.6875 0
0.0625 0.703125 0
0.0625 0.71875 0
0.0625 0.734375 0
0.0625 0.75 0
0.0625 0.765625 0
0.0625 0.78125 0
0.0625 0.796875 0
0.0625 0.8125 0
0.0625 0.828125 0
0.0625 0.84375 0
0.0625 0.859375 0
0.0625 0.875 0
0.0625 0.890625 0
0.0625 0.90625 0
0.0625 0.921875 0
0.0625 0.9375 0
0.0625 0.953125 0
0.0625 0.96875 0
0.0625 0.984375 0
0.078125 0 0
0.078125 0.015625 0
0.078125 0.03125 0
0.078125 0.046875 0
0.078125 0.0625 0
0.078125 0.078125 0
0.078125 0.09375 0
0.078125 0.109375 0
0.078125 0.125 0
0.078125 0.140625 0
0.078125 0.15625 0
0.078125 0.171875 0
0.078125 0.1875 0
0.078125 0.203125 0
0.078125 0.21875 0
0.078125 0.234375 0
0.078125 0.25 0
0.078125 0.265625 0
0.078125 0.28125 0
0.078125 0.296875 0
0.078125 0.3125 0
0.078125 0.328125 0
0.078125 0.34375 0
0.078125 0.359375 0
0.078125 0.375 0
0.078125 0.390625 0
0.078125 0.40625 0
0.078125 0.421875 0
0.078125 0.4375 0
0.078125 0.453125 0
0.078125 0.46875 0
0.078125 0.484375 0
0.078125 0.5 0
0.078125 0.515625 0
0.078125 0.53125 0
0.078125 0.546875 0
0.078125 0.5625 0
0.078125 0.578125 0
0.078125 0.59375 0
0.078125 0.609375 0
0.078125 0.625 0
0.078125 0.640625 0
0.078125 0.65625 0
0.078125 0.671875 0
0.078125 0.6875 0
0.078125 0.703125 0
0.078125 0.71875 0
0.078125 0.734375 0
0.078125 0.75 0
0.078125 0.765625 0
0.078125 0.78125 0
0.078125 0.796875 0
0.078125 0.8125 0
0.078125 0.828125 0
0.078125 0.84375 0
0.078125 0.859375 0
0.078125 0.875 0
0.078125 0.890625 0
0.078125 0.90625 0
0.078125 0.921875 0
0.078125 0.9375 0
0.078125 0.953125 0
0.078125 0.96875 0
0.078125 0.984375 0
0.09375 0 0
0.09375 0.015625 0
0.09375 0.03125 0
0.09375 0.046875 0
0.09375 0.0625 0
0.09375 0.078125 0
0.09375 0.09375 0
0.09375 0.109375 0
0.09375 0.125 0
0.09375 0.140625 0
0.09375 0.15625 0
0.09375 0.171875 0
0.09375 0.1875 0
0.09375 0.203125 0
0.09375 0.21875 0
0.09375 0.234375 0
0.09375 0.25 0
0.09375 0.265625 0
0.09375 0.28125 0
0.09375 0.296875 0
0.09375 0.3125 0
0.09375 0.328125 0
0.09375 0.34375 0
0.09375 0.359375 0
0.09375 0.375 0
0.09375 0.390625 0
0.09375 0.40625 0
0.09375 0.421875 0
0.09375 0.4375 0
0.09375 0.453125 0
0.09375 0.46875 0
0.09375 0.484375 0
0.09375 0.5 0
0.09375 0.515625 0
0.09375 0.53125 0
0.09375 0.546875 0
0.09375 0.5625 0
0.09375 0.578125 0
0.09375 0.59375 0
0.09375 0.609375 0
0.09375 0.625 0
0.09375 0.640625 0
0.09375 0.65625 0
0.09375 0.671875 0
0.09375 0.6875 0
0.09375 0.703125 0
0.09375 0.71875 0
0.09375 0.734375 0
0.09375 0.75 0
0.09375 0.765625 0
0.09375 0.78125 0
0.09375 0.796875 0
0.09375 0.8125 0
0.09375 0.828125 0
0.09375 0.84375 0
0.09375 0.859375 0
0.09375 0.875 0
0.09375 0.890625 0
0.09375 0.90625 0
0.09375 0.921875 0
0.09375 0.9375 0
0.09375 0.953125 0
0.09375 0.96875 0
0.09375 0.984375 0
0.109375 0 0
0.109375 0.015625 0
0.109375 0.03125 0
0.109375 0.046875 0
0.109375 0.0625 0
0.109375 0.078125 0
0.109375 0.09375 0
0.109375 0.109375 0
0.109375 0.125 0
0.109375 0.140625 0
0.109375 0.15625 0
0.109375 0.171875 0
0.109375 0.1875 0
0.109375 0.203125 0
0.109375 0.21875 0
0.109375 0.234375 0
0.109375 0.25 0
0.109375 0.265625 0
0.109375 0.28125 0
0.109375 0.296875 0
0.109375 0.3125 0
0.109375 0.328125 0
0.109375 0.34375 0
0.109375 0.359375 0
0.109375 0.375 0
0.109375 0.390625 0
0.109375 0.40625 0
0.109375 0.421875 0
0.109375 0.4375 0
0.109375 0.453125 0
0.109375 0.46875 0
0.109375 0.484375 0
0.109375 0.5 0
0.109375 0.515625 0
0.109375 0.53125 0
0.109375 0.546875 0
0.109375 0.5625 0
0.109375 0.578125 0
0.109375 0.59375 0
0.109375 0.609375 0
0.109375 0.625 0
0.109375 0.640625 0
0.109375 0.65625 0
0.109375 0.671875 0
0.109375 0.6875 0
0.109375 0.703125 0
0.109375 0.71875 0
0.109375 0.734375 0
0.109375 0.75 0
0.109375 0.765625 0
0.109375 0.78125 0
0.109375 0.796875 0
0.109375 0.8125 0
0.109375 0.828125 0
0.109375 0.84375 0
0.109375 0.859375 0
0.109375 0.875 0
0.109375 0.890625 0
0.109375 0.90625 0
0.109375 0.921875 0
0.109375 0.9375 0
0.109375 0.953125 0
0.109375 0.96875 0
0.109375 0.984375 0
0.125 0 0
0.125 0.015625 0
0.125 0.03125 0
0.125 0.046875 0
0.125 0.0625 0
0.125 0.078125 0
0.125 0.09375 0
0.125 0.109375 0
0.125 0.125 0
0.125 0.140625 0
0.125 0.15625 0
0.125 0.171875 0
0.125 0.1875 0
0.125 0.203125 0
0.125 0.21875 0
0.125 0.234375 0
0.125 0.25 0
0.125 0.265625 0
0.125 0.28125 0
0.125 0.296875 0
0.125 0.3125 0
0.125 0.328125 0
0.125 0.34375 0
0.125 0.359375 0
0.125 0.375 0
0.125 0.390625 0
0.125 0.40625 0
0.125 0.421875 0
0.125 0.4375 0
0.125 0.453125 0
0.125 0.46875 0
0.125 0.484375 0
0.125 0.5 0
0.125 0.515625 0
0.125 0.53125 0
0.125 0.546875 0
0.125 0.5625 0
0.125 0.578125 0
0.125 0.59375 0
0.125 0.609375 0
0.125 0.625 0
0.125 0.640625 0
0.125 0.65625 0
0.125 0.671875 0
0.125 0.6875 0
0.125 0.703125 0
0.125 0.71875 0
0.125 0.734375 0
0.125 0.75 0
0.125 0.765625 0
0.125 0.78125 0
0.125 0.796875 0
0.125 0.8125 0
0.125 0.828125 0
[...]
POINT_DATA 4096
SCALARS values float
LOOKUP_TABLE default
0
0
0
0
0
0
0
0
0
0
0
0
0
0
0
0
0
0
0
0
0
0
0
0
0
0
0
0
0
0
0
0
0
0
0
0
0
0
0
0
0
0
0
0
0
0
0
0
0
0
0
0
0
0
0
0
0
0
0
0
0
0
0
0
0
0.004184195
0.008434712
0.012800565
0.017305298
0.021947357
0.026704794
0.031540969
0.036409578
0.041258528
0.046032756
0.050676224
0.05513336
0.059350126
0.063274849
0.06685889
0.070057221
0.072828906
0.07513753
0.076951566
0.078244685
0.078996013
0.079190334
0.078818235
0.077876191
0.076366598
0.074297741
0.071683715
0.068544275
0.064904648
0.060795277
0.056251532
0.051313357
0.046024893
0.040434055
0.034592077
0.028553034
0.022373352
0.016111291
0.0098264457
0.003579234
-0.0025695854
-0.0085593727
-0.014330024
-0.019822335
-0.024978288
-0.029741246
-0.034056041
-0.037868902
-0.041127229
-0.043779151
-0.045772858
-0.047055694
-0.047573047
-0.047267156
-0.046076195
-0.043934307
-0.040773923
-0.036532591
-0.031167521
-0.024681305
-0.017159672
-0.0088134102
0
0
0.00810485
0.016361612
0.024878415
0.033703883
0.042832038
0.052215057
0.061776309
0.071420868
0.081043174
0.090532398
0.099776173
0.10866327
0.11708559
0.12493973
0.13212829
0.13856096
0.1441555
0.14883857
0.15254645
0.1552257
0.15683366
0.15733885
0.15672129
0.15497269
0.15209648
0.14810782
0.14303343
0.13691129
0.12979028
0.12172972
0.11279876
0.10307573
0.092647375
0.081608014
0.07005867
0.05810612
0.045861909
0.033441348
0.020962504
0.0085451982
-0.0036899638
-0.015622509
-0.027132932
-0.038103431
-0.048418489
-0.057965288
-0.066633889
-0.074317136
-0.080910215
-0.086309807
-0.090412765
-0.093114267
-0.094305462
-0.093870775
-0.09168537
-0.087613913
-0.081513002
-0.073241621
-0.0626868
-0.049814194
-0.034751496
-0.017896751
0
0
0.011481117
0.023247419
0.035485735
0.04826865
0.061576675
0.075326595
0.089394605
0.10363261
0.11787908
0.13196628
0.14572511
0.15898864
0.17159476
0.18338828
0.1942228
0.20396226
0.21248237
0.21967182
0.22543343
0.22968504
0.23236038
0.23340962
0.23279991
0.23051568
0.22655873
0.22094826
0.21372062
0.20492898
0.19464279
0.18294706
0.16994158
0.15573992
0.14046836
0.12426462
0.10727665
0.08966115
0.071582208
0.053209762
0.034718127
0.016284504
-0.0019124648
-0.019694069
-0.036882794
-0.053303429
-0.068783981
-0.083156321
-0.09625652
-0.10792476
-0.11800477
-0.12634263
-0.13278481
-0.13717545
-0.13935255
-0.13914329
-0.1363588
-0.13078923
-0.12220206
-0.11034891
-0.094992734
-0.075975309
-0.053354315
-0.02762962
0
0
0.013988364
0.028499347
0.043820107
0.060030651
0.077075089
0.094816916
0.11307381
0.13163826
0.15028986
0.16880288
0.18695142
0.20451309
0.221272
0.23702123
0.25156508
0.26472107
0.27632172
0.28621626
0.29427205
0.30037589
0.30443509
0.30637839
0.30615659
0.30374307
0.29913399
0.29234832
0.28342765
0.27243575
0.25945793
0.24460021
0.22798829
0.20976631
0.19009544
0.16915237
0.14712764
0.12422378
0.10065354
0.076637879
0.052404051
0.028183631
0.0042106127
-0.019280416
-0.04205597
-0.063885172
-0.08454102
-0.10380133
-0.12144925
-0.13727334
-0.1510669
-0.1626266
-0.17175006
-0.17823226
-0.18186034
-0.18240664
-0.17961967
-0.17321307
-0.16285396
-0.14815491
-0.12868226
-0.10401164
-0.073898972
-0.038683582
0
0
0.015203603
0.031410367
0.048987039
0.067957212
0.088180512
0.10943924
0.13147845
0.15402507
0.17679778
0.19951285
0.2218883
0.24364718
0.26452045
0.28424968
0.30258957
0.31931032
0.33419987
0.3470659
0.35773773
0.36606791
0.3719337
0.37523818
0.37591122
0.37391014
0.36922007
0.36185412
0.35185318
0.33928554
0.32424619
0.30685587
0.2872599
0.26562675
0.24214641
0.21702857
0.19050063
0.16280554
0.13419956
0.10494993
0.075332454
0.045629126
0.016125775
-0.012890216
-0.041132033
-0.068315367
-0.09416006
-0.1183914
-0.14074094
-0.16094677
-0.178753
-0.19390833
-0.20616346
-0.21526691
-0.2209588
-0.22296184
-0.22096847
-0.21462243
-0.20349285
-0.18703891
-0.1645682
-0.13521237
-0.098015217
-0.052436346
0
0
0.014468385
0.031066299
0.049956141
0.070935044
0.093700358
0.11792159
0.14326015
0.16937499
0.19592491
0.22257034
0.24897544
0.27481047
0.29975445
0.32349791
0.34574569
0.36621965
0.38466128
0.40083421
0.41452639
0.42555219
0.43375416
0.43900455
0.44120649
0.44029496
0.43623739
0.42903391
0.4187174
0.40535304
0.38903776
0.36989919
0.34809445
0.32380862
0.29725287
0.26866254
0.23829478
0.20642619
0.17335023
0.13937448
0.10481793
0.07000813
0.035278426
0.00096525526
-0.032594432
-0.065065538
-0.096116903
-0.12542301
-0.15266521
-0.17753232
-0.19972044
-0.21893176
-0.23487212
-0.24724679
-0.25575401
-0.26007504
-0.2598591
-0.2546998
-0.24409663
-0.22738951
-0.20364367
-0.1714501
-0.128628
-0.072099286
0
0
0.010487847
0.026209808
0.045533055
0.067773533
0.092404808
0.11897387
0.14706225
0.17626757
0.20619506
0.23645456
0.26666045
0.29643312
0.32540147
0.35320574
0.37950064
0.40395843
0.42627204
0.44615787
0.46335862
0.47764565
0.48882125
0.49672051
0.50121292
0.50220359
0.49963417
0.49348338
0.4837672
0.47053867
0.45388736
0.43393845
0.41085152
0.38481898
0.35606415
0.32483918
0.29142254
0.25611647
0.21924405
0.18114627
0.14217891
0.10270934
0.063113398
0.023772218
-0.014930765
-0.052612651
-0.088893627
-0.12339916
-0.15576172
-0.18562186
-0.21262858
-0.23643866
-0.25671477
-0.27312193
-0.2853218
-0.29296373
-0.29567086
-0.29301773
-0.2844916
-0.26941935
-0.24681394
-0.21501323
-0.1707269
-0.10621701
0
0
0.015218294
0.034423639
0.057254223
0.083055938
0.11130351
0.14152797
0.17328404
0.20613573
0.23965081
0.27339968
0.30695681
0.33990328
0.37182999
0.40234121
0.43105817
0.45762258
0.48170002
0.50298321
0.52119491
0.53609061
0.5474609
0.55513347
0.55897478
0.55889133
0.55483053
0.54678119
0.5347736
0.51887921
0.49920989
0.47591682
0.44918901
0.41925142
0.38636282
0.35081324
0.31292126
0.27303094
0.23150864
0.18873961
0.14512454
0.10107604
0.057015043
0.013367429
-0.029439319
-0.070979175
-0.11083031
-0.1485774
-0.18381336
-0.21614042
-0.24517025
-0.27052307
-0.29182537
-0.30870594
-0.32078976
-0.32768892
-0.3289892
-0.3242294
-0.31286682
-0.29421251
-0.26729289
-0.23051561
-0.18076865
-0.11072985
0
0
0.025031591
0.051912391
0.081129893
0.11260125
0.1460458
0.18109727
0.21734463
0.25435117
0.29166616
0.32883323
0.36539706
0.40090928
0.43493359
0.46705056
0.49686197
0.52399488
0.54810537
0.56888192
0.5860485
0.59936724
0.60864078
0.61371413
0.61447618
0.61086075
0.60284722
0.59046069
0.57377168
0.55289544
0.52799078
0.49925852
0.46693949
0.43131219
0.39269014
0.35141881
0.3078724
0.26245027
0.21557329
0.16767998
0.11922261
0.0706633
0.022470183
-0.024886326
-0.070936983
-0.11521686
-0.15726805
-0.19664179
-0.23289987
-0.26561515
-0.29437099
-0.31875935
-0.33837722
-0.35282117
-0.36167942
-0.36452086
-0.3608801
-0.35023677
-0.33198539
-0.30538791
-0.26949239
-0.22298933
-0.16399412
-0.0900059
0
0
0.031447072
0.063982619
0.098167298
0.13413195
0.17174273
0.21070923
0.25064858
0.29112407
0.33166942
0.37180485
0.4110485
0.44892504
0.48497258
0.51874849
0.54983449
0.57784118
0.60241208
0.62322727
0.64000654
0.65251219
0.66055134
0.6639778
0.66269349
0.65664935
0.64584578
0.63033264
0.61020867
0.58562055
0.5567614
0.5238689
0.48722296
0.44714298
0.40398483
0.35813735
0.31001878
0.26007277
0.2087643
0.15657554
0.10400151
0.051545925
-0.00028299147
-0.050976403
-0.10002853
-0.14693986
-0.19121993
-0.23238929
-0.26998075
-0.30353954
-0.33262224
-0.35679414
-0.37562484
-0.3886817
-0.39552075
-0.39567495
-0.38863949
-0.37385475
-0.3506886
-0.31842294
-0.27625799
-0.22337081
-0.15913078
-0.083751023
0
0
0.035110204
0.071092503
0.10849909
0.1475254
0.18809188
0.22993472
0.27267479
0.3158643
0.35901744
0.40163061
0.44319644
0.48321402
0.52119683
0.55667925
0.58922208
0.6184175
0.64389325
0.66531657
0.68239743
0.6948915
0.70260246
0.70538398
0.70314108
0.69583104
0.68346378
0.66610174
0.64385921
0.61690121
0.58544181
0.54974208
0.51010748
0.46688493
0.42045947
0.37125054
0.3197081
0.26630832
0.2115493
0.15594651
0.10002832
0.044331439
-0.01060341
-0.064235657
-0.11602872
-0.16545336
-0.21199054
-0.25513341
-0.29438852
-0.3292758
-0.35932721
-0.38408376
-0.40309053
-0.41588941
-0.4220093
-0.42095355
-0.41218534
-0.39511255
-0.36907769
-0.33336517
-0.28725469
-0.23017949
-0.16209594
-0.084203542
0
0
0.036138635
0.073270407
0.11199324
0.15250237
0.19469835
0.23829078
0.28287256
0.32796823
0.37306502
0.4176331
0.46113962
0.50305893
0.54288057
0.58011595
0.61430405
0.64501641
0.67186169
0.69448959
0.71259438
0.72591792
0.73425216
0.7374412
0.73538276
0.72802914
0.71538767
0.69752058
0.67454437
0.64662862
0.61399433
0.5769117
0.53569756
0.4907122
0.44235599
0.3910655
0.33730937
0.28158397
0.22440879
0.16632178
0.10787462
0.049627967
-0.0078530476
-0.064003232
-0.11826133
-0.17007359
-0.21889673
-0.26420013
-0.30546707
-0.34219486
-0.37389342
-0.40008225
-0.42028525
-0.43402312
-0.44080286
-0.44010421
-0.43136307
-0.41395344
-0.38717223
-0.35023903
-0.30233983
-0.24277861
-0.17136225
-0.089204601
0
0
0.034330108
0.070187934
0.10824275
0.14859939
0.19105194
0.2352258
0.28065315
0.32681447
0.37316316
0.41914136
0.46419118
0.50776336
0.54932447
0.58836306
0.62439529
0.65696994
0.685673
0.71013179
0.73001865
0.74505416
0.7550098
0.75971026
0.759035
0.75291951
0.7413558
0.72439249
0.70213431
0.67474098
0.64242566
0.60545285
0.56413578
0.51883338
0.46994681
0.4179156
0.36321353
0.30634416
0.24783617
0.1882386
0.12811599
0.06804348
0.0086021367
-0.049625637
-0.10606031
-0.16012901
-0.21126873
-0.25892878
-0.30257231
-0.34167671
-0.37573247
-0.40424047
-0.42670697
-0.4426361
-0.45151902
-0.45281921
-0.44595272
-0.43026264
-0.40498705
-0.36922248
-0.32189388
-0.26177453
-0.18770054
-0.099408789
0
0
0.029087155
0.061114002
0.096545915
0.13516202
0.17652572
0.22011984
0.26539047
0.3117646
0.35865984
0.40549162
0.45167944
0.49665279
0.53985677
0.5807576
0.61884781
0.65365116
0.68472734
0.71167619
0.73414162
0.75181505
0.76443839
0.77180652
0.77376929
0.77023288
0.76116075
0.74657388
0.72655059
0.70122568
0.67078911
0.63548411
0.5956048
0.55149328
0.50353639
0.45216193
0.39783463
0.34105176
0.28233852
0.22224324
0.16133245
0.10018603
0.039392245
-0.020456885
-0.07877006
-0.13496074
-0.18845067
-0.2386727
-0.2850728
-0.32711087
-0.36426036
-0.39600607
-0.42183998
-0.44125436
-0.45373156
-0.45872894
-0.45565722
-0.44384804
-0.42250338
-0.39061146
-0.34680019
-0.28908059
-0.21446212
-0.1188233
0
0
0.018953862
0.04475309
0.075890296
0.11136717
0.15039953
0.19230129
0.23643135
0.28216895
0.328903
0.37602877
0.42294857
0.46907467
0.51383329
0.55666925
0.5970508
0.63447449
0.66846989
0.69860404
0.72448559
0.74576857
0.76215573
0.77340135
0.77931366
0.77975661
0.7746512
0.76397617
0.7477682
0.72612147
0.69918673
0.66716979
0.63032947
0.58897509
0.54346344
0.49419536
0.44161187
0.38619003
0.32843845
0.2688926
0.20810994
0.14666502
0.085144503
0.024142352
-0.035744851
-0.093922229
-0.14980053
-0.20279946
-0.25235023
-0.29789725
-0.33889851
-0.37482456
-0.4051556
-0.42937621
-0.44696682
-0.45739078
-0.46007451
-0.45437599
-0.43953085
-0.41455027
-0.37800492
-0.32751092
-0.25836214
-0.15947165
0
0
0.019123424
0.045047728
0.076311159
0.11191646
0.15107941
0.19311321
0.23737567
0.28324466
0.33010764
0.37735834
0.42439759
0.47063618
0.51549893
0.55842936
0.59889452
0.6363899
0.6704441
0.70062337
0.7265357
0.7478346
0.76422247
0.77545341
0.7813356
0.78173314
0.7765673
0.76581729
0.74952036
0.72777144
0.70072218
0.66857938
0.631603
0.5901036
0.54443931
0.49501237
0.44226532
0.38667675
0.32875688
0.26904279
0.20809358
0.14648543
0.08480664
0.023652766
-0.036378042
-0.094689389
-0.15069056
-0.20379984
-0.25344711
-0.29907549
-0.34014173
-0.37611521
-0.406475
-0.43070451
-0.44828306
-0.45867284
-0.46129912
-0.45551874
-0.44056636
-0.41545265
-0.37874873
-0.32807311
-0.25872594
-0.15963504
0
0
0.029465844
0.061861894
0.0976655
0.13666011
0.17840968
0.22239538
0.26806026
0.31482742
0.36211016
0.40931938
0.45587003
0.50118715
0.54471161
0.58590562
0.62425799
0.65928915
0.6905558
0.71765521
0.74022916
0.75796736
0.77061048
0.77795267
0.77984346
0.77618927
0.7669542
0.7521604
0.73188779
0.70627322
0.67550912
0.63984158
0.59956795
0.55503392
0.50663019
0.45478872
0.39997861
0.34270168
0.28348784
0.22289021
0.16148022
0.099842609
0.038570522
-0.021739219
-0.080490598
-0.13709249
-0.19096219
-0.24152829
-0.28823265
-0.33053129
-0.36789391
-0.39980172
-0.42574323
-0.44520733
-0.45767292
-0.46259393
-0.45937752
-0.44735174
-0.42571519
-0.39345353
-0.34919402
-0.290951
-0.2157441
-0.11947196
0
0
0.034912688
0.071357298
0.11001067
0.15098147
0.19406356
0.23887901
0.28495458
0.3317641
0.37875364
0.42535771
0.47101082
0.51515628
0.55725351
0.59678439
0.63325886
0.66622006
0.69524893
0.71996843
0.74004723
0.75520297
0.76520496
0.76987648
0.76909639
0.76280034
0.75098133
0.73368973
0.71103276
0.68317339
0.65032875
0.61276792
0.57080938
0.52481784
0.47520076
0.42240446
0.36690985
0.30922796
0.24989519
0.1894685
0.12852042
0.06763419
0.0073988964
-0.051595095
-0.10876044
-0.16351664
-0.21529332
-0.26353267
-0.30769106
-0.34723932
-0.38166176
-0.41045328
-0.43311437
-0.44914348
-0.4580261
-0.45921988
-0.45213479
-0.43610754
-0.41036975
-0.37401202
-0.32595548
-0.26497461
-0.1899163
-0.10054334
0
0
0.036896529
0.074800975
0.11432174
0.15565801
0.19870854
0.24317714
0.28864832
0.33463681
0.38061925
0.42605503
0.47040054
0.51311968
0.55369204
0.59161961
0.62643263
0.6576947
0.68500732
0.70801399
0.72640369
0.73991402
0.7483337
0.75150466
0.74932355
0.74174268
0.72877049
0.71047139
0.68696511
0.6584255
0.62507879
0.58720137
0.54511706
0.49919403
0.44984118
0.39750428
0.34266173
0.28582011
0.2275095
0.16827872
0.10869047
0.049316549
-0.0092668074
-0.066483391
-0.12176111
-0.17453564
-0.22425342
-0.27037394
-0.31237099
-0.34973279
-0.38196058
-0.40856555
-0.42906355
-0.44296739
-0.44977614
-0.44896137
-0.43995025
-0.42210726
-0.39471888
-0.35699376
-0.30810774
-0.247359
-0.17456017
-0.090854023
0
0
0.035994853
0.072891794
0.11125898
0.15129537
0.19291678
0.23584988
0.27970341
0.32401613
0.36828817
0.41200183
0.45463587
0.49567595
0.5346227
0.57099839
0.6043526
0.63426716
0.66036055
0.68229183
0.69976401
0.71252701
0.72038009
0.72317382
0.72081149
0.71325001
0.70050033
0.68262727
0.65974883
0.63203507
0.59970633
0.56303113
0.52232351
0.47794001
0.43027621
0.37976296
0.32686231
0.2720632
0.21587694
0.15883264
0.10147252
0.044347331
-0.011988178
-0.066979492
-0.12007628
-0.17073586
-0.21842609
-0.26262753
-0.30283456
-0.33855551
-0.36931124
-0.39463212
-0.41405296
-0.42710564
-0.43330895
-0.43215583
-0.42309814
-0.405531
-0.37878197
-0.34211775
-0.2947978
-0.23623515
-0.16637482
-0.08643498
0
0
0.032385632
0.065919398
0.10118223
0.13830427
0.17714117
0.21738755
0.25864369
0.30045535
0.34233856
0.38379612
0.42432919
0.46344607
0.5006692
0.5355412
0.56763
0.59653348
0.62188368
0.64335046
0.6606448
0.67352163
0.68178225
0.68527623
0.68390284
0.67761201
0.66640481
0.65033336
0.62950031
0.60405778
0.57420589
0.54019073
0.50230199
0.46087015
0.41626327
0.36888349
0.31916319
0.26756101
0.21455757
0.16065111
0.10635318
0.052184165
-0.0013309246
-0.05366654
-0.10430037
-0.15271671
-0.19840927
-0.24088331
-0.27965692
-0.31426122
-0.34423929
-0.36914351
-0.38853108
-0.40195726
-0.40896605
-0.40907797
-0.4017747
-0.38648102
-0.36254558
-0.32922533
-0.28568709
-0.23106421
-0.16467602
-0.086705618
0
0
0.025912905
0.053804241
0.084168171
0.11690629
0.15171663
0.18821047
0.22595441
0.26448994
0.30334507
0.34204279
0.38010785
0.41707266
0.45248259
0.48590078
0.5169127
0.54513027
0.57019577
0.59178531
0.60961203
0.62342889
0.63303103
0.6382578
0.63899425
0.63517225
0.6267711
0.61381769
0.59638623
0.57459749
0.54861754
0.51865617
0.48496481
0.44783408
0.40759096
0.36459569
0.31923834
0.27193513
0.22312458
0.17326352
0.12282306
0.072284433
0.022135064
-0.027135334
-0.075038377
-0.12109029
-0.16481473
-0.20574506
-0.24342577
-0.27741317
-0.30727474
-0.33258729
-0.35293333
-0.36789539
-0.37704792
-0.37994578
-0.3761086
-0.36499875
-0.34598904
-0.31831144
-0.28096899
-0.23258049
-0.17114571
-0.093996106
0
0
0.015853506
0.036015997
0.060018976
0.087162028
0.11688376
0.14868443
0.18209111
0.21664211
0.2518807
0.28735385
0.32261336
0.35721849
0.39073921
0.42275983
0.45288271
0.48073197
0.50595698
0.52823575
0.54727803
0.56282803
0.57466697
0.58261511
0.58653351
0.58632537
0.58193687
0.57335774
0.56062128
0.54380402
0.52302493
0.49844425
0.4702619
0.43871551
0.40407815
0.36665566
0.32678373
0.28482475
0.24116441
0.19620811
0.15037737
0.10410606
0.057836664
0.012016726
-0.032904695
-0.07648023
-0.1182671
-0.15782956
-0.19474077
-0.2285839
-0.25895241
-0.28544911
-0.30768389
-0.32526969
-0.33781619
-0.34492033
-0.34615234
-0.34103391
-0.32900153
-0.30933756
-0.28102286
-0.24238212
-0.19012974
-0.11652485
0
0
0.011431779
0.028333234
0.049045313
0.072838451
0.09915006
0.1274959
0.15742903
0.18852023
0.22034899
0.25250022
0.28456411
0.31613773
0.34682753
0.37625238
0.40404686
0.42986449
0.45338098
0.47429731
0.49234251
0.50727634
0.51889153
0.52701583
0.53151359
0.53228711
0.52927755
0.52246545
0.51187091
0.49755336
0.47961094
0.45817953
0.43343141
0.40557355
0.37484562
0.34151763
0.30588742
0.26827774
0.2290333
0.18851752
0.14710925
0.10519942
0.06318763
0.021478836
-0.019519848
-0.059402159
-0.097765402
-0.13421279
-0.16835529
-0.19981281
-0.22821463
-0.25319881
-0.27441026
-0.29149724
-0.30410545
-0.31186888
-0.31439538
-0.31124333
-0.30188091
-0.28560901
-0.26139891
-0.22751079
-0.18048845
-0.11218953
0
0
0.016046634
0.034321236
0.055005255
0.07788357
0.10263264
0.12889848
0.15631805
0.18452545
0.21315448
0.24184072
0.27022385
0.29795033
0.3246763
0.35007056
0.37381763
0.39562066
0.41520425
0.43231707
0.44673429
0.45825975
0.46672781
0.47200494
0.47399107
0.47262042
0.46786224
0.45972097
0.44823624
0.43348245
0.41556798
0.39463416
0.37085385
0.34442974
0.31559244
0.2845982
0.2517265
0.21727738
0.18156869
0.14493315
0.10771532
0.07026867
0.03295249
-0.0038709669
-0.039839268
-0.074592345
-0.10777474
-0.13903745
-0.16803926
-0.19444745
-0.21793764
-0.23819272
-0.2549003
-0.26774857
-0.27641966
-0.28057957
-0.27986266
-0.27384718
-0.26201514
-0.24368345
-0.2178824
-0.18314463
-0.13719025
-0.076792689
0
0
0.017237543
0.035519745
0.055230387
0.076392166
0.098853803
0.12238091
0.14669827
0.17151025
0.19651163
0.22139418
0.24585135
0.26958206
0.29229401
0.31370671
0.33355433
0.3515883
0.36757978
0.38132187
0.39263162
0.40135183
0.40735254
0.41053231
0.41081915
0.40817124
0.40257728
0.39405661
0.38265895
0.36846397
0.3515804
0.33214504
0.31032133
0.28629786
0.26028647
0.23252022
0.20325123
0.17274827
0.14129428
0.10918377
0.076720267
0.044213603
0.011977391
-0.019673478
-0.050425164
-0.079966983
-0.10799321
-0.13420452
-0.15830888
-0.18002195
-0.19906655
-0.21517136
-0.22806826
-0.23748818
-0.24315489
-0.24477596
-0.24202971
-0.2345466
-0.22188259
-0.20348259
-0.17863683
-0.14645458
-0.10595515
-0.056594995
0
0
0.016350964
0.033234423
0.050946853
0.069571627
0.089048515
0.1092297
0.12991615
0.15087989
0.17187759
0.19265935
0.21297458
0.23257649
0.25122555
0.26869241
0.28476056
0.29922855
0.31191211
0.32264597
0.33128553
0.33770825
0.34181485
0.34353028
0.34280443
0.3396126
0.33395571
0.32586032
0.31537827
0.30258626
0.28758499
0.27049821
0.25147153
0.23067097
0.20828137
0.18450462
0.15955775
0.13367093
0.10708527
0.080050737
0.052823875
0.025665646
-0.0011607273
-0.027391795
-0.052765778
-0.077024256
-0.099913573
-0.12118591
-0.14059992
-0.1579208
-0.17291973
-0.18537251
-0.19505714
-0.20175026
-0.2052221
-0.20522963
-0.20150785
-0.19375922
-0.18164265
-0.16476652
-0.14269848
-0.11502418
-0.081525395
-0.042599309
0
0
0.014072479
0.028409849
0.043206819
0.058546234
0.074410924
0.090710964
0.10730858
0.12403661
0.1407112
0.15714041
0.17313028
0.18848903
0.20303047
0.21657656
0.22895968
0.2400245
0.2496297
0.25764937
0.26397433
0.2685132
0.2711933
0.27196136
0.27078402
0.26764815
0.26256097
0.25554995
0.24666254
0.23596569
0.2235452
0.20950484
0.19396538
0.17706336
0.15894987
0.13978899
0.11975636
0.099037435
0.077825867
0.056321714
0.034729706
0.013257504
-0.0078859774
-0.028492171
-0.048354313
-0.067268733
-0.085035905
-0.10146121
-0.11635536
-0.12953431