# vtk DataFile Version 3.0
vtk output
ASCII
DATASET STRUCTURED_GRID
DIMENSIONS 100 100 1
POINTS 10000 float
0 0 0
0 0.01 0
0 0.02 0
0 0.03 0
0 0.04 0
0 0.05 0
0 0.06 0
0 0.07 0
0 0.08 0
0 0.09 0
0 0.1 0
0 0.11 0
0 0.12 0
0 0.13 0
0 0.14 0
0 0.15 0
0 0.16 0
0 0.17 0
0 0.18 0
0 0.19 0
0 0.2 0
0 0.21 0
0 0.22 0
0 0.23 0
0 0.24 0
0 0.25 0
0 0.26 0
0 0.27 0
0 0.28 0
0 0.29 0
0 0.3 0
0 0.31 0
0 0.32 0
0 0.33 0
0 0.34 0
0 0.35 0
0 0.36 0
0 0.37 0
0 0.38 0
0 0.39 0
0 0.4 0
0 0.41 0
0 0.42 0
0 0.43 0
0 0.44 0
0 0.45 0
0 0.46 0
0 0.47 0
0 0.48 0
0 0.49 0
0 0.5 0
0 0.51 0
0 0.52 0
0 0.53 0
0 0.54 0
0 0.55 0
0 0.56 0
0 0.57 0
0 0.58 0
0 0.59 0
0 0.6 0
0 0.61 0
0 0.62 0
0 0.63 0
0 0.64 0
0 0.65 0
0 0.66 0
0 0.67 0
0 0.68 0
0 0.69 0
0 0.7 0
0 0.71 0
0 0.72 0
0 0.73 0
0 0.74 0
0 0.75 0
0 0.76 0
0 0.77 0
0 0.78 0
0 0.79 0
0 0.8 0
0 0.81 0
0 0.82 0
0 0.83 0
0 0.84 0
0 0.85 0
0 0.86 0
0 0.87 0
0 0.88 0
0 0.89 0
0 0.9 0
0 0.91 0
0 0.92 0
0 0.93 0
0 0.94 0
0 0.95 0
0 0.96 0
0 0.97 0
0 0.98 0
0 0.99 0
0.01 0 0
0.01 0.01 0
0.01 0.02 0
0.01 0.03 0
0.01 0.04 0
0.01 0.05 0
0.01 0.06 0
0.01 0.07 0
0.01 0.08 0
0.01 0.09 0
0.01 0.1 0
0.01 0.11 0
0.01 0.12 0
0.01 0.13 0
0.01 0.14 0
0.01 0.15 0
0.01 0.16 0
0.01 0.17 0
0.01 0.18 0
0.01 0.19 0
0.01 0.2 0
0.01 0.21 0
0.01 0.22 0
0.01 0.23 0
0.01 0.24 0
0.01 0.25 0
0.01 0.26 0
0.01 0.27 0
0.01 0.28 0
0.01 0.29 0
0.01 0.3 0
0.01 0.31 0
0.01 0.32 0
0.01 0.33 0
0.01 0.34 0
0.01 0.35 0
0.01 0.36 0
0.01 0.37 0
0.01 0.38 0
0.01 0.39 0
0.01 0.4 0
0.01 0.41 0
0.01 0.42 0
0.01 0.43 0
0.01 0.44 0
0.01 0.45 0
0.01 0.46 0
0.01 0.47 0
0.01 0.48 0
0.01 0.49 0
0.01 0.5 0
0.01 0.51 0
0.01 0.52 0
0.01 0.53 0
0.01 0.54 0
0.01 0.55 0
0.01 0.56 0
0.01 0.57 0
0.01 0.58 0
0.01 0.59 0
0.01 0.6 0
0.01 0.61 0
0.01 0.62 0
0.01 0.63 0
0.01 0.64 0
0.01 0.65 0
0.01 0.66 0
0.01 0.67 0
0.01 0.68 0
0.01 0.69 0
0.01 0.7 0
0.01 0.71 0
0.01 0.72 0
0.01 0.73 0
0.01 0.74 0
0.01 0.75 0
0.01 0.76 0
0.01 0.77 0
0.01 0.78 0
0.01 0.79 0
0.01 0.8 0
0.01 0.81 0
0.01 0.82 0
0.01 0.83 0
0.01 0.84 0
0.01 0.85 0
0.01 0.86 0
0.01 0.87 0
0.01 0.88 0
0.01 0.89 0
0.01 0.9 0
0.01 0.91 0
0.01 0.92 0
0.01 0.93 0
0.01 0.94 0
0.01 0.95 0
0.01 0.96 0
0.01 0.97 0
0.01 0.98 0
0.01 0.99 0
0.02 0 0
0.02 0.01 0
0.02 0.02 0
0.02 0.03 0
0.02 0.04 0
0.02 0.05 0
0.02 0.06 0
0.02 0.07 0
0.02 0.08 0
0.02 0.09 0
0.02 0.1 0
0.02 0.11 0
0.02 0.12 0
0.02 0.13 0
0.02 0.14 0
0.02 0.15 0
0.02 0.16 0
0.02 0.17 0
0.02 0.18 0
0.02 0.19 0
0.02 0.2 0
0.02 0.21 0
0.02 0.22 0
0.02 0.23 0
0.02 0.24 0
0.02 0.25 0
0.02 0.26 0
0.02 0.27 0
0.02 0.28 0
0.02 0.29 0
0.02 0.3 0
0.02 0.31 0
0.02 0.32 0
0.02 0.33 0
0.02 0.34 0
0.02 0.35 0
0.02 0.36 0
0.02 0.37 0
0.02 0.38 0
0.02 0.39 0
0.02 0.4 0
0.02 0.41 0
0.02 0.42 0
0.02 0.43 0
0.02 0.44 0
0.02 0.45 0
0.02 0.46 0
0.02 0.47 0
0.02 0.48 0
0.02 0.49 0
0.02 0.5 0
0.02 0.51 0
0.02 0.52 0
0.02 0.53 0
0.02 0.54 0
0.02 0.55 0
0.02 0.56 0
0.02 0.57 0
0.02 0.58 0
0.02 0.59 0
0.02 0.6 0
0.02 0.61 0
0.02 0.62 0
0.02 0.63 0
0.02 0.64 0
0.02 0.65 0
0.02 0.66 0
0.02 0.67 0
0.02 0.68 0
0.02 0.69 0
0.02 0.7 0
0.02 0.71 0
0.02 0.72 0
0.02 0.73 0
0.02 0.74 0
0.02 0.75 0
0.02 0.76 0
0.02 0.77 0
0.02 0.78 0
0.02 0.79 0
0.02 0.8 0
0.02 0.81 0
0.02 0.82 0
0.02 0.83 0
0.02 0.84 0
0.02 0.85 0
0.02 0.86 0
0.02 0.87 0
0.02 0.88 0
0.02 0.89 0
0.02 0.9 0
0.02 0.91 0
0.02 0.92 0
0.02 0.93 0
0.02 0.94 0
0.02 0.95 0
0.02 0.96 0
0.02 0.97 0
0.02 0.98 0
0.02 0.99 0
0.03 0 0
0.03 0.01 0
0.03 0.02 0
0.03 0.03 0
0.03 0.04 0
0.03 0.05 0
0.03 0.06 0
0.03 0.07 0
0.03 0.08 0
0.03 0.09 0
0.03 0.1 0
0.03 0.11 0
0.03 0.12 0
0.03 0.13 0
0.03 0.14 0
0.03 0.15 0
0.03 0.16 0
0.03 0.17 0
0.03 0.18 0
0.03 0.19 0
0.03 0.2 0
0.03 0.21 0
0.03 0.22 0
0.03 0.23 0
0.03 0.24 0
0.03 0.25 0
0.03 0.26 0
0.03 0.27 0
0.03 0.28 0
0.03 0.29 0
0.03 0.3 0
0.03 0.31 0
0.03 0.32 0
0.03 0.33 0
0.03 0.34 0
0.03 0.35 0
0.03 0.36 0
0.03 0.37 0
0.03 0.38 0
0.03 0.39 0
0.03 0.4 0
0.03 0.41 0
0.03 0.42 0
0.03 0.43 0
0.03 0.44 0
0.03 0.45 0
0.03 0.46 0
0.03 0.47 0
0.03 0.48 0
0.03 0.49 0
0.03 0.5 0
0.03 0.51 0
0.03 0.52 0
0.03 0.53 0
0.03 0.54 0
0.03 0.55 0
0.03 0.56 0
0.03 0.57 0
0.03 0.58 0
0.03 0.59 0
0.03 0.6 0
0.03 0.61 0
0.03 0.62 0
0.03 0.63 0
0.03 0.64 0
0.03 0.65 0
0.03 0.66 0
0.03 0.67 0
0.03 0.68 0
0.03 0.69 0
0.03 0.7 0
0.03 0.71 0
0.03 0.72 0
0.03 0.73 0
0.03 0.74 0
0.03 0.75 0
0.03 0.76 0
0.03 0.77 0
0.03 0.78 0
0.03 0.79 0
0.03 0.8 0
0.03 0.81 0
0.03 0.82 0
0.03 0.83 0
0.03 0.84 0
0.03 0.85 0
0.03 0.86 0
0.03 0.87 0
0.03 0.88 0
0.03 0.89 0
0.03 0.9 0
0.03 0.91 0
0.03 0.92 0
0.03 0.93 0
0.03 0.94 0
0.03 0.95 0
0.03 0.96 0
0.03 0.97 0
0.03 0.98 0
0.03 0.99 0
0.04 0 0
0.04 0.01 0
0.04 0.02 0
0.04 0.03 0
0.04 0.04 0
0.04 0.05 0
0.04 0.06 0
0.04 0.07 0
0.04 0.08 0
0.04 0.09 0
0.04 0.1 0
0.04 0.11 0
0.04 0.12 0
0.04 0.13 0
0.04 0.14 0
0.04 0.15 0
0.04 0.16 0
0.04 0.17 0
0.04 0.18 0
0.04 0.19 0
0.04 0.2 0
0.04 0.21 0
0.04 0.22 0
0.04 0.23 0
0.04 0.24 0
0.04 0.25 0
0.04 0.26 0
0.04 0.27 0
0.04 0.28 0
0.04 0.29 0
0.04 0.3 0
0.04 0.31 0
0.04 0.32 0
0.04 0.33 0
0.04 0.34 0
0.04 0.35 0
0.04 0.36 0
0.04 0.37 0
0.04 0.38 0
0.04 0.39 0
0.04 0.4 0
0.04 0.41 0
0.04 0.42 0
0.04 0.43 0
0.04 0.44 0
0.04 0.45 0
0.04 0.46 0
0.04 0.47 0
0.04 0.48 0
0.04 0.49 0
0.04 0.5 0
0.04 0.51 0
0.04 0.52 0
0.04 0.53 0
0.04 0.54 0
0.04 0.55 0
0.04 0.56 0
0.04 0.57 0
0.04 0.58 0
0.04 0.59 0
0.04 0.6 0
0.04 0.61 0
0.04 0.62 0
0.04 0.63 0
0.04 0.64 0
0.04 0.65 0
0.04 0.66 0
0.04 0.67 0
0.04 0.68 0
0.04 0.69 0
0.04 0.7 0
0.04 0.71 0
0.04 0.72 0
0.04 0.73 0
0.04 0.74 0
0.04 0.75 0
0.04 0.76 0
0.04 0.77 0
0.04 0.78 0
0.04 0.79 0
0.04 0.8 0
0.04 0.81 0
0.04 0.82 0
0.04 0.83 0
0.04 0.84 0
0.04 0.85 0
0.04 0.86 0
0.04 0.87 0
0.04 0.88 0
0.04 0.89 0
0.04 0.9 0
0.04 0.91 0
0.04 0.92 0
0.04 0.93 0
0.04 0.94 0
0.04 0.95 0
0.04 0.96 0
0.04 0.97 0
0.04 0.98 0
0.04 0.99 0
0.05 0 0
0.05 0.01 0
0.05 0.02 0
0.05 0.03 0
0.05 0.04 0
0.05 0.05 0
0.05 0.06 0
0.05 0.07 0
0.05 0.08 0
0.05 0.09 0
0.05 0.1 0
0.05 0.11 0
0.05 0.12 0
0.05 0.13 0
0.05 0.14 0
0.05 0.15 0
0.05 0.16 0
0.05 0.17 0
0.05 0.18 0
0.05 0.19 0
0.05 0.2 0
0.05 0.21 0
0.05 0.22 0
0.05 0.23 0
0.05 0.24 0
0.05 0.25 0
0.05 0.26 0
0.05 0.27 0
0.05 0.28 0
0.05 0.29 0
0.05 0.3 0
0.05 0.31 0
0.05 0.32 0
0.05 0.33 0
0.05 0.34 0
0.05 0.35 0
0.05 0.36 0
0.05 0.37 0
0.05 0.38 0
0.05 0.39 0
0.05 0.4 0
0.05 0.41 0
0.05 0.42 0
0.05 0.43 0
0.05 0.44 0
0.05 0.45 0
0.05 0.46 0
0.05 0.47 0
0.05 0.48 0
0.05 0.49 0
0.05 0.5 0
0.05 0.51 0
0.05 0.52 0
0.05 0.53 0
0.05 0.54 0
0.05 0.55 0
0.05 0.56 0
0.05 0.57 0
0.05 0.58 0
0.05 0.59 0
0.05 0.6 0
0.05 0.61 0
0.05 0.62 0
0.05 0.63 0
0.05 0.64 0
0.05 0.65 0
0.05 0.66 0
0.05 0.67 0
0.05 0.68 0
0.05 0.69 0
0.05 0.7 0
0.05 0.71 0
0.05 0.72 0
0.05 0.73 0
0.05 0.74 0
0.05 0.75 0
0.05 0.76 0
0.05 0.77 0
0.05 0.78 0
0.05 0.79 0
0.05 0.8 0
0.05 0.81 0
0.05 0.82 0
0.05 0.83 0
0.05 0.84 0
0.05 0.85 0
0.05 0.86 0
0.05 0.87 0
0.05 0.88 0
0.05 0.89 0
0.05 0.9 0
0.05 0.91 0
0.05 0.92 0
0.05 0.93 0
0.05 0.94 0
0.05 0.95 0
0.05 0.96 0
0.05 0.97 0
0.05 0.98 0
0.05 0.99 0
0.06 0 0
0.06 0.01 0
0.06 0.02 0
0.06 0.03 0
0.06 0.04 0
0.06 0.05 0
0.06 0.06 0
0.06 0.07 0
0.06 0.08 0
0.06 0.09 0
0.06 0.1 0
0.06 0.11 0
0.06 0.12 0
0.06 0.13 0
0.06 0.14 0
0.06 0.15 0
0.06 0.16 0
0.06 0.17 0
0.06 0.18 0
0.06 0.19 0
0.06 0.2 0
0.06 0.21 0
0.06 0.22 0
0.06 0.23 0
0.06 0.24 0
0.06 0.25 0
0.06 0.26 0
0.06 0.27 0
0.06 0.28 0
0.06 0.29 0
0.06 0.3 0
0.06 0.31 0
0.06 0.32 0
0.06 0.33 0
0.06 0.34 0
0.06 0.35 0
0.06 0.36 0
0.06 0.37 0
0.06 0.38 0
0.06 0.39 0
0.06 0.4 0
0.06 0.41 0
0.06 0.42 0
0.06 0.43 0
0.06 0.44 0
0.06 0.45 0
0.06 0.46 0
0.06 0.47 0
0.06 0.48 0
0.06 0.49 0
0.06 0.5 0
0.06 0.51 0
0.06 0.52 0
0.06 0.53 0
0.06 0.54 0
0.06 0.55 0
0.06 0.56 0
0.06 0.57 0
0.06 0.58 0
0.06 0.59 0
0.06 0.6 0
0.06 0.61 0
0.06 0.62 0
0.06 0.63 0
0.06 0.64 0
0.06 0.65 0
0.06 0.66 0
0.06 0.67 0
0.06 0.68 0
0.06 0.69 0
0.06 0.7 0
0.06 0.71 0
0.06 0.72 0
0.06 0.73 0
0.06 0.74 0
0.06 0.75 0
0.06 0.76 0
0.06 0.77 0
0.06 0.78 0
0.06 0.79 0
0.06 0.8 0
0.06 0.81 0
0.06 0.82 0
0.06 0.83 0
0.06 0.84 0
0.06 0.85 0
0.06 0.86 0
0.06 0.87 0
0.06 0.88 0
0.06 0.89 0
0.06 0.9 0
0.06 0.91 0
0.06 0.92 0
0.06 0.93 0
0.06 0.94 0
0.06 0.95 0
0.06 0.96 0
0.06 0.97 0
0.06 0.98 0
0.06 0.99 0
0.07 0 0
0.07 0.01 0
0.07 0.02 0
0.07 0.03 0
0.07 0.04 0
0.07 0.05 0
0.07 0.06 0
0.07 0.07 0
0.07 0.08 0
0.07 0.09 0
0.07 0.1 0
0.07 0.11 0
0.07 0.12 0
0.07 0.13 0
0.07 0.14 0
0.07 0.15 0
0.07 0.16 0
0.07 0.17 0
0.07 0.18 0
0.07 0.19 0
0.07 0.2 0
0.07 0.21 0
0.07 0.22 0
0.07 0.23 0
0.07 0.24 0
0.07 0.25 0
0.07 0.26 0
0.07 0.27 0
0.07 0.28 0
0.07 0.29 0
0.07 0.3 0
0.07 0.31 0
0.07 0.32 0
0.07 0.33 0
0.07 0.34 0
0.07 0.35 0
0.07 0.36 0
0.07 0.37 0
0.07 0.38 0
0.07 0.39 0
0.07 0.4 0
0.07 0.41 0
0.07 0.42 0
0.07 0.43 0
0.07 0.44 0
0.07 0.45 0
0.07 0.46 0
0.07 0.47 0
0.07 0.48 0
0.07 0.49 0
0.07 0.5 0
0.07 0.51 0
0.07 0.52 0
0.07 0.53 0
0.07 0.54 0
0.07 0.55 0
0.07 0.56 0
0.07 0.57 0
0.07 0.58 0
0.07 0.59 0
0.07 0.6 0
0.07 0.61 0
0.07 0.62 0
0.07 0.63 0
0.07 0.64 0
0.07 0.65 0
0.07 0.66 0
0.07 0.67 0
0.07 0.68 0
0.07 0.69 0
0.07 0.7 0
0.07 0.71 0
0.07 0.72 0
0.07 0.73 0
0.07 0.74 0
0.07 0.75 0
0.07 0.76 0
0.07 0.77 0
0.07 0.78 0
0.07 0.79 0
0.07 0.8 0
0.07 0.81 0
0.07 0.82 0
0.07 0.83 0
0.07 0.84 0
0.07 0.85 0
0.07 0.86 0
0.07 0.87 0
0.07 0.88 0
0.07 0.89 0
0.07 0.9 0
0.07 0.91 0
0.07 0.92 0
0.07 0.93 0
0.07 0.94 0
0.07 0.95 0
0.07 0.96 0
0.07 0.97 0
0.07 0.98 0
0.07 0.99 0
0.08 0 0
0.08 0.01 0
0.08 0.02 0
0.08 0.03 0
0.08 0.04 0
0.08 0.05 0
0.08 0.06 0
0.08 0.07 0
0.08 0.08 0
0.08 0.09 0
0.08 0.1 0
0.08 0.11 0
0.08 0.12 0
0.08 0.13 0
0.08 0.14 0
0.08 0.15 0
0.08 0.16 0
0.08 0.17 0
0.08 0.18 0
0.08 0.19 0
0.08 0.2 0
0.08 0.21 0
0.08 0.22 0
0.08 0.23 0
0.08 0.24 0
0.08 0.25 0
0.08 0.26 0
0.08 0.27 0
0.08 0.28 0
0.08 0.29 0
0.08 0.3 0
0.08 0.31 0
0.08 0.32 0
0.08 0.33 0
0.08 0.34 0
0.08 0.35 0
0.08 0.36 0
0.08 0.37 0
0.08 0.38 0
0.08 0.39 0
0.08 0.4 0
0.08 0.41 0
0.08 0.42 0
0.08 0.43 0
0.08 0.44 0
0.08 0.45 0
0.08 0.46 0
0.08 0.47 0
0.08 0.48 0
0.08 0.49 0
0.08 0.5 0
0.08 0.51 0
0.08 0.52 0
0.08 0.53 0
0.08 0.54 0
0.08 0.55 0
0.08 0.56 0
0.08 0.57 0
[...]
POINT_DATA 10000
SCALARS values float
LOOKUP_TABLE default
0
0
0
0
0
0
0
0
0
0
0
0
0
0
0
0
0
0
0
0
0
0
0
0
0
0
0
0
0
0
0
0
0
0
0
0
0
0
0
0
0
0
0
0
0
0
0
0
0
0
0
0
0
0
0
0
0
0
0
0
0
0
0
0
0
0
0
0
0
0
0
0
0
0
0
0
0
0
0
0
0
0
0
0
0
0
0
0
0
0
0
0
0
0
0
0
0
0
0
0
0
0.0040239441
0.0080316852
0.012007086
0.015934138
0.019797028
0.023580204
0.02726843
0.030846856
0.034301072
0.03761717
0.040781797
0.04378221
0.046606328
0.049242778
0.051680945
0.053911011
0.055923997
0.057711796
0.05926721
0.060583976
0.061656792
0.062481338
0.063054293
0.063373351
0.063437227
0.063245664
0.062799432
0.06210033
0.061151171
0.059955778
0.058518965
0.056846516
0.054945166
0.052822572
0.05048728
0.047948693
0.045217034
0.042303301
0.039219229
0.035977234
0.032590372
0.029072279
0.025437123
0.021699541
0.017874582
0.013977649
0.010024432
0.0060308509
0.0020129855
-0.0020129855
-0.0060308509
-0.010024432
-0.013977649
-0.017874582
-0.021699541
-0.025437123
-0.029072279
-0.032590372
-0.035977234
-0.039219229
-0.042303301
-0.045217034
-0.047948693
-0.05048728
-0.052822572
-0.054945166
-0.056846516
-0.058518965
-0.059955778
-0.061151171
-0.06210033
-0.062799432
-0.063245664
-0.063437227
-0.063373351
-0.063054293
-0.062481338
-0.061656792
-0.060583976
-0.05926721
-0.057711796
-0.055923997
-0.053911011
-0.051680945
-0.049242778
-0.046606328
-0.04378221
-0.040781797
-0.03761717
-0.034301072
-0.030846856
-0.02726843
-0.023580204
-0.019797028
-0.015934138
-0.012007086
-0.0080316852
-0.0040239441
0
0
0.0080316852
0.01603103
0.023965823
0.031804114
0.039514341
0.047065458
0.054427059
0.061569502
0.068464026
0.075082869
0.08139938
0.087388125
0.093024988
0.098287273
0.10315379
0.10760494
0.11162281
0.11519121
0.11829577
0.120924
0.12306531
0.12471109
0.12585469
0.12649152
0.12661902
0.12623666
0.12534599
0.1239506
0.12205611
0.11967014
0.11680229
0.11346413
0.10966909
0.10543245
0.10077126
0.095704313
0.090251994
0.084436262
0.078280535
0.0718096
0.065049513
0.058027495
0.05077182
0.043311705
0.03567719
0.027899014
0.0200085
0.012037418
0.0040178654
-0.0040178654
-0.012037418
-0.0200085
-0.027899014
-0.03567719
-0.043311705
-0.05077182
-0.058027495
-0.065049513
-0.0718096
-0.078280535
-0.084436262
-0.090251994
-0.095704313
-0.10077126
-0.10543245
-0.10966909
-0.11346413
-0.11680229
-0.11967014
-0.12205611
-0.1239506
-0.12534599
-0.12623666
-0.12661902
-0.12649152
-0.12585469
-0.12471109
-0.12306531
-0.120924
-0.11829577
-0.11519121
-0.11162281
-0.10760494
-0.10315379
-0.098287273
-0.093024988
-0.087388125
-0.08139938
-0.075082869
-0.068464026
-0.061569502
-0.054427059
-0.047065458
-0.039514341
-0.031804114
-0.023965823
-0.01603103
-0.0080316852
0
0
0.012007086
0.023965823
0.035828058
0.047546027
0.059072544
0.070361197
0.08136653
0.092044229
0.1023513
0.11224624
0.1216892
0.13064216
0.13906907
0.146936
0.15421127
0.16086558
0.16687215
0.17220678
0.176848
0.18077711
0.1839783
0.18643867
0.18814831
0.18910035
0.18929095
0.18871935
0.18738783
0.18530177
0.18246957
0.17890262
0.1746153
0.16962487
0.16395141
0.15761778
0.15064948
0.14307457
0.13492354
0.12622923
0.11702663
0.10735281
0.097246724
0.086749054
0.075902077
0.064749469
0.053336138
0.041708041
0.029912
0.017995514
0.0060065668
-0.0060065668
-0.017995514
-0.029912
-0.041708041
-0.053336138
-0.064749469
-0.075902077
-0.086749054
-0.097246724
-0.10735281
-0.11702663
-0.12622923
-0.13492354
-0.14307457
-0.15064948
-0.15761778
-0.16395141
-0.16962487
-0.1746153
-0.17890262
-0.18246957
-0.18530177
-0.18738783
-0.18871935
-0.18929095
-0.18910035
-0.18814831
-0.18643867
-0.1839783
-0.18077711
-0.176848
-0.17220678
-0.16687215
-0.16086558
-0.15421127
-0.146936
-0.13906907
-0.13064216
-0.1216892
-0.11224624
-0.1023513
-0.092044229
-0.08136653
-0.070361197
-0.059072544
-0.047546027
-0.035828058
-0.023965823
-0.012007086
0
0
0.015934138
0.031804114
0.047546027
0.063096488
0.078392882
0.093373616
0.10797837
0.12214833
0.13582644
0.14895763
0.16148901
0.17337014
0.18455317
0.19499307
0.20464779
0.21347848
0.22144956
0.22852894
0.23468812
0.23990229
0.24415046
0.24741552
0.24968433
0.25094775
0.25120068
0.25044212
0.24867512
0.2459068
0.24214829
0.23741473
0.2317252
0.22510258
0.21757356
0.20916844
0.19992108
0.18986871
0.1790518
0.16751391
0.15530151
0.14246376
0.12905236
0.11512131
0.1007267
0.085926509
0.07078032
0.055349123
0.039695055
0.023881149
0.0079710819
-0.0079710819
-0.023881149
-0.039695055
-0.055349123
-0.07078032
-0.085926509
-0.1007267
-0.11512131
-0.12905236
-0.14246376
-0.15530151
-0.16751391
-0.1790518
-0.18986871
-0.19992108
-0.20916844
-0.21757356
-0.22510258
-0.2317252
-0.23741473
-0.24214829
-0.2459068
-0.24867512
-0.25044212
-0.25120068
-0.25094775
-0.24968433
-0.24741552
-0.24415046
-0.23990229
-0.23468812
-0.22852894
-0.22144956
-0.21347848
-0.20464779
-0.19499307
-0.18455317
-0.17337014
-0.16148901
-0.14895763
-0.13582644
-0.12214833
-0.10797837
-0.093373616
-0.078392882
-0.063096488
-0.047546027
-0.031804114
-0.015934138
0
0
0.019797028
0.039514341
0.059072544
0.078392882
0.09739756
0.11601005
0.13415541
0.15176058
0.16875465
0.18506922
0.20063857
0.21540002
0.22929414
0.24226496
0.25426028
0.26523177
0.27513527
0.2839309
0.29158324
0.29806147
0.30333952
0.30739613
0.31021496
0.31178466
0.31209892
0.31115646
0.30896109
0.30552164
0.30085196
0.29497086
0.28790201
0.27967389
0.27031962
0.25987686
0.24838767
0.23589832
0.22245908
0.20812408
0.19295104
0.17700105
0.16033834
0.14303
0.12514574
0.10675755
0.087939495
0.068767334
0.049318272
0.029670623
0.0099035002
-0.0099035002
-0.029670623
-0.049318272
-0.068767334
-0.087939495
-0.10675755
-0.12514574
-0.14303
-0.16033834
-0.17700105
-0.19295104
-0.20812408
-0.22245908
-0.23589832
-0.24838767
-0.25987686
-0.27031962
-0.27967389
-0.28790201
-0.29497086
-0.30085196
-0.30552164
-0.30896109
-0.31115646
-0.31209892
-0.31178466
-0.31021496
-0.30739613
-0.30333952
-0.29806147
-0.29158324
-0.2839309
-0.27513527
-0.26523177
-0.25426028
-0.24226496
-0.22929414
-0.21540002
-0.20063857
-0.18506922
-0.16875465
-0.15176058
-0.13415541
-0.11601005
-0.09739756
-0.078392882
-0.059072544
-0.039514341
-0.019797028
0
0
0.023580204
0.047065458
0.070361197
0.093373616
0.11601005
0.13817936
0.15979226
0.18076174
0.20100335
0.2204356
0.23898023
0.25656257
0.27311182
0.28856135
0.30284894
0.31591707
0.32771311
0.33818956
0.34730425
0.35502046
0.36130714
0.36613895
0.36949646
0.37136613
0.37174044
0.37061788
0.36800298
0.36390626
0.35834421
0.35133924
0.34291955
0.33311905
0.32197719
0.30953884
0.29585409
0.28097804
0.2649706
0.2478962
0.22982362
0.21082562
0.1909787
0.17036277
0.14906086
0.12715872
0.10474457
0.081908644
0.058742902
0.035340624
0.011796041
-0.011796041
-0.035340624
-0.058742902
-0.081908644
-0.10474457
-0.12715872
-0.14906086
-0.17036277
-0.1909787
-0.21082562
-0.22982362
-0.2478962
-0.2649706
-0.28097804
-0.29585409
-0.30953884
-0.32197719
-0.33311905
-0.34291955
-0.35133924
-0.35834421
-0.36390626
-0.36800298
-0.37061788
-0.37174044
-0.37136613
-0.36949646
-0.36613895
-0.36130714
-0.35502046
-0.34730425
-0.33818956
-0.32771311
-0.31591707
-0.30284894
-0.28856135
-0.27311182
-0.25656257
-0.23898023
-0.2204356
-0.20100335
-0.18076174
-0.15979226
-0.13817936
-0.11601005
-0.093373616
-0.070361197
-0.047065458
-0.023580204
0
0
0.02726843
0.054427059
0.08136653
0.10797837
0.13415541
0.15979226
0.18478568
0.20903504
0.23244269
0.25491437
0.2763596
0.29669202
0.31582978
0.3336958
0.35021814
0.36533028
0.37897136
0.39108646
0.40162679
0.41054991
0.4178199
0.42340747
0.42729012
0.42945223
0.42988509
0.42858695
0.42556305
0.42082555
0.41439354
0.4062929
0.39655628
0.38522285
0.37233828
0.35795442
0.34212922
0.32492637
0.30641517
0.28667014
0.26577079
0.24380127
0.22085005
0.19700955
0.17237576
0.14704787
0.12112787
0.094720136
0.067930995
0.04086832
0.013641083
-0.013641083
-0.04086832
-0.067930995
-0.094720136
-0.12112787
-0.14704787
-0.17237576
-0.19700955
-0.22085005
-0.24380127
-0.26577079
-0.28667014
-0.30641517
-0.32492637
-0.34212922
-0.35795442
-0.37233828
-0.38522285
-0.39655628
-0.4062929
-0.41439354
-0.42082555
-0.42556305
-0.42858695
-0.42988509
-0.42945223
-0.42729012
-0.42340747
-0.4178199
-0.41054991
-0.40162679
-0.39108646
-0.37897136
-0.36533028
-0.35021814
-0.3336958
-0.31582978
-0.29669202
-0.2763596
-0.25491437
-0.23244269
-0.20903504
-0.18478568
-0.15979226
-0.13415541
-0.10797837
-0.08136653
-0.054427059
-0.02726843
0
0
0.030846856
0.061569502
0.092044229
0.12214833
0.15176058
0.18076174
0.20903504
0.23646663
0.26294605
0.28836668
0.31262616
0.33562681
0.357276
0.37748657
0.39617713
0.41327243
0.42870363
0.44240859
0.45433212
0.46442622
0.47265024
0.47897107
0.48336324
0.48580909
0.48629875
0.48483026
0.48140953
0.47605033
0.46877424
0.45961057
0.44859621
0.4357755
0.42120009
0.40492865
0.3870267
0.36756634
0.34662592
0.32428975
0.30064779
0.27579522
0.24983212
0.22286304
0.19499656
0.16634491
0.13702344
0.10715022
0.076845554
0.046231454
0.015431197
-0.015431197
-0.046231454
-0.076845554
-0.10715022
-0.13702344
-0.16634491
-0.19499656
-0.22286304
-0.24983212
-0.27579522
-0.30064779
-0.32428975
-0.34662592
-0.36756634
-0.3870267
-0.40492865
-0.42120009
-0.4357755
-0.44859621
-0.45961057
-0.46877424
-0.47605033
-0.48140953
-0.48483026
-0.48629875
-0.48580909
-0.48336324
-0.47897107
-0.47265024
-0.46442622
-0.45433212
-0.44240859
-0.42870363
-0.41327243
-0.39617713
-0.37748657
-0.357276
-0.33562681
-0.31262616
-0.28836668
-0.26294605
-0.23646663
-0.20903504
-0.18076174
-0.15176058
-0.12214833
-0.092044229
-0.061569502
-0.030846856
0
0
0.034301072
0.068464026
0.1023513
0.13582644
0.16875465
0.20100335
0.23244269
0.26294605
0.29239063
0.32065785
0.34763389
0.37321014
0.3972836
0.41975734
0.44054086
0.45955049
0.47670966
0.49194929
0.50520802
0.51643245
0.5255774
0.53260602
0.53749003
0.54020976
0.54075425
0.53912132
0.53531754
0.52935822
0.52126736
0.51107754
0.4988298
0.48457344
0.46836588
0.45027237
0.43036577
0.40872624
0.38544092
0.36060356
0.33431418
0.30667864
0.2778082
0.24781913
0.21683219
0.18497213
0.15236726
0.11914886
0.085450683
0.051408431
0.017159175
-0.017159175
-0.051408431
-0.085450683
-0.11914886
-0.15236726
-0.18497213
-0.21683219
-0.24781913
-0.2778082
-0.30667864
-0.33431418
-0.36060356
-0.38544092
-0.40872624
-0.43036577
-0.45027237
-0.46836588
-0.48457344
-0.4988298
-0.51107754
-0.52126736
-0.52935822
-0.53531754
-0.53912132
-0.54075425
-0.54020976
-0.53749003
-0.53260602
-0.5255774
-0.51643245
-0.50520802
-0.49194929
-0.47670966
-0.45955049
-0.44054086
-0.41975734
-0.3972836
-0.37321014
-0.34763389
-0.32065785
-0.29239063
-0.26294605
-0.23244269
-0.20100335
-0.16875465
-0.13582644
-0.1023513
-0.068464026
-0.034301072
0
0
0.03761717
0.075082869
0.11224624
0.14895763
0.18506922
0.2204356
0.25491437
0.28836668
0.32065785
0.35165784
0.38124182
0.40929068
0.43569148
0.46033789
0.48313069
0.50397809
0.52279615
0.53950909
0.55404962
0.56635919
0.57638823
0.58409636
0.58945254
0.5924352
0.59303233
0.59124153
0.58707001
0.58053457
0.57166152
0.56048659
0.54705478
0.53142017
0.51364572
0.493803
0.47197191
0.44824035
0.42270389
0.39546535
0.36663441
0.33632717
0.30466565
0.27177735
0.2377947
0.20285454
0.16709755
0.13066772
0.093711732
0.056378404
0.018818059
-0.018818059
-0.056378404
-0.093711732
-0.13066772
-0.16709755
-0.20285454
-0.2377947
-0.27177735
-0.30466565
-0.33632717
-0.36663441
-0.39546535
-0.42270389
-0.44824035
-0.47197191
-0.493803
-0.51364572
-0.53142017
-0.54705478
-0.56048659
-0.57166152
-0.58053457
-0.58707001
-0.59124153
-0.59303233
-0.5924352
-0.58945254
-0.58409636
-0.57638823
-0.56635919
-0.55404962
-0.53950909
-0.52279615
-0.50397809
-0.48313069
-0.46033789
-0.43569148
-0.40929068
-0.38124182
-0.35165784
-0.32065785
-0.28836668
-0.25491437
-0.2204356
-0.18506922
-0.14895763
-0.11224624
-0.075082869
-0.03761717
0
0
0.040781797
0.08139938
0.1216892
0.16148901
0.20063857
0.23898023
0.2763596
0.31262616
0.34763389
0.38124182
0.41331463
0.44372316
0.47234498
0.49906483
0.52377512
0.54637635
0.56677752
0.58489648
0.60066026
0.6140054
0.62487816
0.63323475
0.63904153
0.64227511
0.64292248
0.64098103
0.63645857
0.62937332
0.6197538
0.60763875
0.59307696
0.57612706
0.55685729
0.53534526
0.51167758
0.48594956
0.45826479
0.42873474
0.39747834
0.36462143
0.33029632
0.29464122
0.2577997
0.21992012
0.181155
0.14166043
0.10159544
0.061121361
0.02040117
-0.02040117
-0.061121361
-0.10159544
-0.14166043
-0.181155
-0.21992012
-0.2577997
-0.29464122
-0.33029632
-0.36462143
-0.39747834
-0.42873474
-0.45826479
-0.48594956
-0.51167758
-0.53534526
-0.55685729
-0.57612706
-0.59307696
-0.60763875
-0.6197538
-0.62937332
-0.63645857
-0.64098103
-0.64292248
-0.64227511
-0.63904153
-0.63323475
-0.62487816
-0.6140054
-0.60066026
-0.58489648
-0.56677752
-0.54637635
-0.52377512
-0.49906483
-0.47234498
-0.44372316
-0.41331463
-0.38124182
-0.34763389
-0.31262616
-0.2763596
-0.23898023
-0.20063857
-0.16148901
-0.1216892
-0.08139938
-0.040781797
0
0
0.04378221
0.087388125
0.13064216
0.17337014
0.21540002
0.25656257
0.29669202
0.33562681
0.37321014
0.40929068
0.44372316
0.47636892
0.50709651
0.5357822
0.56231049
0.58657455
0.60847668
0.62792869
0.64485226
0.65917923
0.67085192
0.67982332
0.68605732
0.68952881
0.6902238
0.68813951
0.68328433
0.6756778
0.66535055
0.65234417
0.63671103
0.61851408
0.5978266
0.57473187
0.54932291
0.52170201
0.49198041
0.46027777
0.42672176
0.39144749
0.354597
0.31631867
0.27676664
0.23610016
0.194483
0.15208272
0.10907005
0.065618203
0.021902132
-0.021902132
-0.065618203
-0.10907005
-0.15208272
-0.194483
-0.23610016
-0.27676664
-0.31631867
-0.354597
-0.39144749
-0.42672176
-0.46027777
-0.49198041
-0.52170201
-0.54932291
-0.57473187
-0.5978266
-0.61851408
-0.63671103
-0.65234417
-0.66535055
-0.6756778
-0.68328433
-0.68813951
-0.6902238
-0.68952881
-0.68605732
-0.67982332
-0.67085192
-0.65917923
-0.64485226
-0.62792869
-0.60847668
-0.58657455
-0.56231049
-0.5357822
-0.50709651
-0.47636892
-0.44372316
-0.40929068
-0.37321014
-0.33562681
-0.29669202
-0.25656257
-0.21540002
-0.17337014
-0.13064216
-0.087388125
-0.04378221
0
0
0.046606328
0.093024988
0.13906907
0.18455317
0.22929414
0.27311182
0.31582978
0.357276
0.3972836
0.43569148
0.47234498
0.50709651
0.53980615
0.57034218
0.59858164
0.62441082
0.64772572
0.66843246
0.68644766
0.70169877
0.7141244
0.72367449
0.7303106
0.73400601
0.73474584
0.73252711
0.72735874
0.71926156
0.70826817
0.69442283
0.67778129
0.65841057
0.63638867
0.61180425
0.58475631
0.55535376
0.523715
0.48996742
0.45424692
0.41669733
0.37746984
0.33672241
0.29461913
0.25132951
0.20702788
0.16189263
0.11610548
0.069850825
0.023314902
-0.023314902
-0.069850825
-0.11610548
-0.16189263
-0.20702788
-0.25132951
-0.29461913
-0.33672241
-0.37746984
-0.41669733
-0.45424692
-0.48996742
-0.523715
-0.55535376
-0.58475631
-0.61180425
-0.63638867
-0.65841057
-0.67778129
-0.69442283
-0.70826817
-0.71926156
-0.72735874
-0.73252711
-0.73474584
-0.73400601
-0.7303106
-0.72367449
-0.7141244
-0.70169877
-0.68644766
-0.66843246
-0.64772572
-0.62441082
-0.59858164
-0.57034218
-0.53980615
-0.50709651
-0.47234498
-0.43569148
-0.3972836
-0.357276
-0.31582978
-0.27311182
-0.22929414
-0.18455317
-0.13906907
-0.093024988
-0.046606328
0
0
0.049242778
0.098287273
0.146936
0.19499307
0.24226496
0.28856135
0.3336958
0.37748657
0.41975734
0.46033789
0.49906483
0.5357822
0.57034218
0.60260558
0.63244251
0.65973281
0.6843666
0.70624469
0.72527898
0.74139283
0.75452135
0.76461168
0.77162318
0.77552764
0.77630932
0.77396507
0.76850434
0.75994911
0.74833384
0.73370529
0.71612237
0.69565588
0.67238822
0.6464131
0.6178351
0.58676929
0.55334077
0.51768415
0.47994299
0.44026927
0.39882274
0.3557703
0.31128529
0.26554685
0.21873914
0.17105065
0.1226734
0.073802182
0.024633791
-0.024633791
-0.073802182
-0.1226734
-0.17105065
-0.21873914
-0.26554685
-0.31128529
-0.3557703
-0.39882274
-0.44026927
-0.47994299
-0.51768415
-0.55334077
-0.58676929
-0.6178351
-0.6464131
-0.67238822
-0.69565588
-0.71612237
-0.73370529
-0.74833384
-0.75994911
-0.76850434
-0.77396507
-0.77630932
-0.77552764
-0.77162318
-0.76461168
-0.75452135
-0.74139283
-0.72527898
-0.70624469
-0.6843666
-0.65973281
-0.63244251
-0.60260558
-0.57034218
-0.5357822
-0.49906483
-0.46033789
-0.41975734
-0.37748657
-0.3336958
-0.28856135
-0.24226496
-0.19499307
-0.146936
-0.098287273
-0.049242778
0
0
0.051680945
0.10315379
0.15421127
0.20464779
0.25426028
0.30284894
0.35021814
0.39617713
0.44054086
0.48313069
0.52377512
0.56231049
0.59858164
0.63244251
0.66375675
0.69239828
0.71825177
0.74121312
0.76118985
0.77810155
0.79188011
0.80247004
0.80982871
0.81392649
0.81474687
0.81228655
0.80655544
0.79757662
0.78538624
0.77003338
0.75157987
0.73010002
0.70568031
0.67841907
0.64842608
0.61582211
0.58073844
0.54331634
0.5037065
0.46206841
0.41856973
0.37338562
0.32669802
0.27869492
0.22956961
0.17951991
0.12874735
0.077456363
0.025853489
-0.025853489
-0.077456363
-0.12874735
-0.17951991
-0.22956961
-0.27869492
-0.32669802
-0.37338562
-0.41856973
-0.46206841
-0.5037065
-0.54331634
-0.58073844
-0.61582211
-0.64842608
-0.67841907
-0.70568031
-0.73010002
-0.75157987
-0.77003338
-0.78538624
-0.79757662
-0.80655544
-0.81228655
-0.81474687
-0.81392649
-0.80982871
-0.80247004
-0.79188011
-0.77810155
-0.76118985
-0.74121312
-0.71825177
-0.69239828
-0.66375675
-0.63244251
-0.59858164
-0.56231049
-0.52377512
-0.48313069
-0.44054086
-0.39617713
-0.35021814
-0.30284894
-0.25426028
-0.20464779
-0.15421127
-0.10315379
-0.051680945
0
0
0.053911011
0.10760494
0.16086558
0.21347848
0.26523177
0.31591707
0.36533028
0.41327243
0.45955049
0.50397809
0.54637635
0.58657455
0.62441082
0.65973281
0.69239828
0.72227572
0.7492448
0.77319694
0.79403569
0.81167713
0.82605024
0.83709714
0.84477334
0.84904794
0.84990372
0.84733724
0.84135883
0.83199256
0.81927616
0.80326082
0.78401103
0.76160431
0.73613087
0.70769329
0.67640609
0.64239523
0.60579768
0.56676079
0.52544176
0.48200696
0.43663129
0.38949745
0.34079525
0.29072079
0.23947569
0.18726631
0.13430288
0.080798655
0.026969083
-0.026969083
-0.080798655
-0.13430288
-0.18726631
-0.23947569
-0.29072079
-0.34079525
-0.38949745
-0.43663129
-0.48200696
-0.52544176
-0.56676079
-0.60579768
-0.64239523
-0.67640609
-0.70769329
-0.73613087
-0.76160431
-0.78401103
-0.80326082
-0.81927616
-0.83199256
-0.84135883
-0.84733724
-0.84990372
-0.84904794
-0.84477334
-0.83709714
-0.82605024
-0.81167713
-0.79403569
-0.77319694
-0.7492448
-0.72227572
-0.69239828
-0.65973281
-0.62441082
-0.58657455
-0.54637635
-0.50397809
-0.45955049
-0.41327243
-0.36533028
-0.31591707
-0.26523177
-0.21347848
-0.16086558
-0.10760494
-0.053911011
0
0
0.055923997
0.11162281
0.16687215
0.22144956
0.27513527
0.32771311
0.37897136
0.42870363
0.47670966
0.52279615
0.56677752
0.60847668
0.64772572
0.6843666
0.71825177
0.7492448
0.77722088
0.80206737
0.82368422
0.84198438
0.85689417
0.86835354
0.87631637
0.88075057
0.88163831
0.878976
0.87277436
0.86305837
0.84986715
0.83325381
0.81328525
0.79004188
0.76361729
0.73411788
0.70166244
0.66638166
0.62841758
0.5879231
0.54506125
0.50000464
0.45293468
0.40404091
0.35352022
0.30157602
0.24841748
0.19425866
0.13931762
0.083815599
0.027976083
-0.027976083
-0.083815599
-0.13931762
-0.19425866
-0.24841748
-0.30157602
-0.35352022
-0.40404091
-0.45293468
-0.50000464
-0.54506125
-0.5879231
-0.62841758
-0.66638166
-0.70166244
-0.73411788
-0.76361729
-0.79004188
-0.81328525
-0.83325381
-0.84986715
-0.86305837
-0.87277436
-0.878976
-0.88163831
-0.88075057
-0.87631637
-0.86835354
-0.85689417
-0.84198438
-0.82368422
-0.80206737
-0.77722088
-0.7492448
-0.71825177
-0.6843666
-0.64772572
-0.60847668
-0.56677752
-0.52279615
-0.47670966
-0.42870363
-0.37897136
-0.32771311
-0.27513527
-0.22144956
-0.16687215
-0.11162281
-0.055923997
0
0
0.057711796
0.11519121
0.17220678
0.22852894
0.2839309
0.33818956
0.39108646
0.44240859
0.49194929
0.53950909
0.58489648
0.62792869
0.66843246
0.70624469
0.74121312
0.77319694
0.80206737
0.82770816
0.85001607
0.86890125
0.88428768
0.8961134
0.90433078
0.90890674
0.90982285
0.90707543
0.90067554
0.89064894
0.87703602
0.85989158
0.83928466
0.81529824
0.7880289