# vtk DataFile Version 3.0
vtk output
ASCII
DATASET STRUCTURED_GRID
DIMENSIONS 64 64 1
POINTS 4096 float
0 0 0
0 0.015625 0
0 0.03125 0
0 0.046875 0
0 0.0625 0
0 0.078125 0
0 0.09375 0
0 0.109375 0
0 0.125 0
0 0.140625 0
0 0.15625 0
0 0.171875 0
0 0.1875 0
0 0.203125 0
0 0.21875 0
0 0.234375 0
0 0.25 0
0 0.265625 0
0 0.28125 0
0 0.296875 0
0 0.3125 0
0 0.328125 0
0 0.34375 0
0 0.359375 0
0 0.375 0
0 0.390625 0
0 0.40625 0
0 0.421875 0
0 0.4375 0
0 0.453125 0
0 0.46875 0
0 0.484375 0
0 0.5 0
0 0.515625 0
0 0.53125 0
0 0.546875 0
0 0.5625 0
0 0.578125 0
0 0.59375 0
0 0.609375 0
0 0.625 0
0 0.640625 0
0 0.65625 0
0 0.671875 0
0 0.6875 0
0 0.703125 0
0 0.71875 0
0 0.734375 0
0 0.75 0
0 0.765625 0
0 0.78125 0
0 0.796875 0
0 0.8125 0
0 0.828125 0
0 0.84375 0
0 0.859375 0
0 0.875 0
0 0.890625 0
0 0.90625 0
0 0.921875 0
0 0.9375 0
0 0.953125 0
0 0.96875 0
0 0.984375 0
0.015625 0 0
0.015625 0.015625 0
0.015625 0.03125 0
0.015625 0.046875 0
0.015625 0.0625 0
0.015625 0.078125 0
0.015625 0.09375 0
0.015625 0.109375 0
0.015625 0.125 0
0.015625 0.140625 0
0.015625 0.15625 0
0.015625 0.171875 0
0.015625 0.1875 0
0.015625 0.203125 0
0.015625 0.21875 0
0.015625 0.234375 0
0.015625 0.25 0
0.015625 0.265625 0
0.015625 0.28125 0
0.015625 0.296875 0
0.015625 0.3125 0
0.015625 0.328125 0
0.015625 0.34375 0
0.015625 0.359375 0
0.015625 0.375 0
0.015625 0.390625 0
0.015625 0.40625 0
0.015625 0.421875 0
0.015625 0.4375 0
0.015625 0.453125 0
0.015625 0.46875 0
0.015625 0.484375 0
0.015625 0.5 0
0.015625 0.515625 0
0.015625 0.53125 0
0.015625 0.546875 0
0.015625 0.5625 0
0.015625 0.578125 0
0.015625 0.59375 0
0.015625 0.609375 0
0.015625 0.625 0
0.015625 0.640625 0
0.015625 0.65625 0
0.015625 0.671875 0
0.015625 0.6875 0
0.015625 0.703125 0
0.015625 0.71875 0
0.015625 0.734375 0
0.015625 0.75 0
0.015625 0.765625 0
0.015625 0.78125 0
0.015625 0.796875 0
0.015625 0.8125 0
0.015625 0.828125 0
0.015625 0.84375 0
0.015625 0.859375 0
0.015625 0.875 0
0.015625 0.890625 0
0.015625 0.90625 0
0.015625 0.921875 0
0.015625 0.9375 0
0.015625 0.953125 0
0.015625 0.96875 0
0.015625 0.984375 0
0.03125 0 0
0.03125 0.015625 0
0.03125 0.03125 0
0.03125 0.046875 0
0.03125 0.0625 0
0.03125 0.078125 0
0.03125 0.09375 0
0.03125 0.109375 0
0.03125 0.125 0
0.03125 0.140625 0
0.03125 0.15625 0
0.03125 0.171875 0
0.03125 0.1875 0
0.03125 0.203125 0
0.03125 0.21875 0
0.03125 0.234375 0
0.03125 0.25 0
0.03125 0.265625 0
0.03125 0.28125 0
0.03125 0.296875 0
0.03125 0.3125 0
0.03125 0.328125 0
0.03125 0.34375 0
0.03125 0.359375 0
0.03125 0.375 0
0.03125 0.390625 0
0.03125 0.40625 0
0.03125 0.421875 0
0.03125 0.4375 0
0.03125 0.453125 0
0.03125 0.46875 0
0.03125 0.484375 0
0.03125 0.5 0
0.03125 0.515625 0
0.03125 0.53125 0
0.03125 0.546875 0
0.03125 0.5625 0
0.03125 0.578125 0
0.03125 0.59375 0
0.03125 0.609375 0
0.03125 0.625 0
0.03125 0.640625 0
0.03125 0.65625 0
0.03125 0.671875 0
0.03125 0.6875 0
0.03125 0.703125 0
0.03125 0.71875 0
0.03125 0.734375 0
0.03125 0.75 0
0.03125 0.765625 0
0.03125 0.78125 0
0.03125 0.796875 0
0.03125 0.8125 0
0.03125 0.828125 0
0.03125 0.84375 0
0.03125 0.859375 0
0.03125 0.875 0
0.03125 0.890625 0
0.03125 0.90625 0
0.03125 0.921875 0
0.03125 0.9375 0
0.03125 0.953125 0
0.03125 0.96875 0
0.03125 0.984375 0
0.046875 0 0
0.046875 0.015625 0
0.046875 0.03125 0
0.046875 0.046875 0
0.046875 0.0625 0
0.046875 0.078125 0
0.046875 0.09375 0
0.046875 0.109375 0
0.046875 0.125 0
0.046875 0.140625 0
0.046875 0.15625 0
0.046875 0.171875 0
0.046875 0.1875 0
0.046875 0.203125 0
0.046875 0.21875 0
0.046875 0.234375 0
0.046875 0.25 0
0.046875 0.265625 0
0.046875 0.28125 0
0.046875 0.296875 0
0.046875 0.3125 0
0.046875 0.328125 0
0.046875 0.34375 0
0.046875 0.359375 0
0.046875 0.375 0
0.046875 0.390625 0
0.046875 0.40625 0
0.046875 0.421875 0
0.046875 0.4375 0
0.046875 0.453125 0
0.046875 0.46875 0
0.046875 0.484375 0
0.046875 0.5 0
0.046875 0.515625 0
0.046875 0.53125 0
0.046875 0.546875 0
0.046875 0.5625 0
0.046875 0.578125 0
0.046875 0.59375 0
0.046875 0.609375 0
0.046875 0.625 0
0.046875 0.640625 0
0.046875 0.65625 0
0.046875 0.671875 0
0.046875 0.6875 0
0.046875 0.703125 0
0.046875 0.71875 0
0.046875 0.734375 0
0.046875 0.75 0
0.046875 0.765625 0
0.046875 0.78125 0
0.046875 0.796875 0
0.046875 0.8125 0
0.046875 0.828125 0
0.046875 0.84375 0
0.046875 0.859375 0
0.046875 0.875 0
0.046875 0.890625 0
0.046875 0.90625 0
0.046875 0.921875 0
0.046875 0.9375 0
0.046875 0.953125 0
0.046875 0.96875 0
0.046875 0.984375 0
0.0625 0 0
0.0625 0.015625 0
0.0625 0.03125 0
0.0625 0.046875 0
0.0625 0.0625 0
0.0625 0.078125 0
0.0625 0.09375 0
0.0625 0.109375 0
0.0625 0.125 0
0.0625 0.140625 0
0.0625 0.15625 0
0.0625 0.171875 0
0.0625 0.1875 0
0.0625 0.203125 0
0.0625 0.21875 0
0.0625 0.234375 0
0.0625 0.25 0
0.0625 0.265625 0
0.0625 0.28125 0
0.0625 0.296875 0
0.0625 0.3125 0
0.0625 0.328125 0
0.0625 0.34375 0
0.0625 0.359375 0
0.0625 0.375 0
0.0625 0.390625 0
0.0625 0.40625 0
0.0625 0.421875 0
0.0625 0.4375 0
0.0625 0.453125 0
0.0625 0.46875 0
0.0625 0.484375 0
0.0625 0.5 0
0.0625 0.515625 0
0.0625 0.53125 0
0.0625 0.546875 0
0.0625 0.5625 0
0.0625 0.578125 0
0.0625 0.59375 0
0.0625 0.609375 0
0.0625 0.625 0
0.0625 0.640625 0
0.0625 0.65625 0
0.0625 0.671875 0
0.0625 0.6875 0
0.0625 0.703125 0
0.0625 0.71875 0
0.0625 0.734375 0
0.0625 0.75 0
0.0625 0.765625 0
0.0625 0.78125 0
0.0625 0.796875 0
0.0625 0.8125 0
0.0625 0.828125 0
0.0625 0.84375 0
0.0625 0.859375 0
0.0625 0.875 0
0.0625 0.890625 0
0.0625 0.90625 0
0.0625 0.921875 0
0.0625 0.9375 0
0.0625 0.953125 0
0.0625 0.96875 0
0.0625 0.984375 0
0.078125 0 0
0.078125 0.015625 0
0.078125 0.03125 0
0.078125 0.046875 0
0.078125 0.0625 0
0.078125 0.078125 0
0.078125 0.09375 0
0.078125 0.109375 0
0.078125 0.125 0
0.078125 0.140625 0
0.078125 0.15625 0
0.078125 0.171875 0
0.078125 0.1875 0
0.078125 0.203125 0
0.078125 0.21875 0
0.078125 0.234375 0
0.078125 0.25 0
0.078125 0.265625 0
0.078125 0.28125 0
0.078125 0.296875 0
0.078125 0.3125 0
0.078125 0.328125 0
0.078125 0.34375 0
0.078125 0.359375 0
0.078125 0.375 0
0.078125 0.390625 0
0.078125 0.40625 0
0.078125 0.421875 0
0.078125 0.4375 0
0.078125 0.453125 0
0.078125 0.46875 0
0.078125 0.484375 0
0.078125 0.5 0
0.078125 0.515625 0
0.078125 0.53125 0
0.078125 0.546875 0
0.078125 0.5625 0
0.078125 0.578125 0
0.078125 0.59375 0
0.078125 0.609375 0
0.078125 0.625 0
0.078125 0.640625 0
0.078125 0.65625 0
0.078125 0.671875 0
0.078125 0.6875 0
0.078125 0.703125 0
0.078125 0.71875 0
0.078125 0.734375 0
0.078125 0.75 0
0.078125 0.765625 0
0.078125 0.78125 0
0.078125 0.796875 0
0.078125 0.8125 0
0.078125 0.828125 0
0.078125 0.84375 0
0.078125 0.859375 0
0.078125 0.875 0
0.078125 0.890625 0
0.078125 0.90625 0
0.078125 0.921875 0
0.078125 0.9375 0
0.078125 0.953125 0
0.078125 0.96875 0
0.078125 0.984375 0
0.09375 0 0
0.09375 0.015625 0
0.09375 0.03125 0
0.09375 0.046875 0
0.09375 0.0625 0
0.09375 0.078125 0
0.09375 0.09375 0
0.09375 0.109375 0
0.09375 0.125 0
0.09375 0.140625 0
0.09375 0.15625 0
0.09375 0.171875 0
0.09375 0.1875 0
0.09375 0.203125 0
0.09375 0.21875 0
0.09375 0.234375 0
0.09375 0.25 0
0.09375 0.265625 0
0.09375 0.28125 0
0.09375 0.296875 0
0.09375 0.3125 0
0.09375 0.328125 0
0.09375 0.34375 0
0.09375 0.359375 0
0.09375 0.375 0
0.09375 0.390625 0
0.09375 0.40625 0
0.09375 0.421875 0
0.09375 0.4375 0
0.09375 0.453125 0
0.09375 0.46875 0
0.09375 0.484375 0
0.09375 0.5 0
0.09375 0.515625 0
0.09375 0.53125 0
0.09375 0.546875 0
0.09375 0.5625 0
0.09375 0.578125 0
0.09375 0.59375 0
0.09375 0.609375 0
0.09375 0.625 0
0.09375 0.640625 0
0.09375 0.65625 0
0.09375 0.671875 0
0.09375 0.6875 0
0.09375 0.703125 0
0.09375 0.71875 0
0.09375 0.734375 0
0.09375 0.75 0
0.09375 0.765625 0
0.09375 0.78125 0
0.09375 0.796875 0
0.09375 0.8125 0
0.09375 0.828125 0
0.09375 0.84375 0
0.09375 0.859375 0
0.09375 0.875 0
0.09375 0.890625 0
0.09375 0.90625 0
0.09375 0.921875 0
0.09375 0.9375 0
0.09375 0.953125 0
0.09375 0.96875 0
0.09375 0.984375 0
0.109375 0 0
0.109375 0.015625 0
0.109375 0.03125 0
0.109375 0.046875 0
0.109375 0.0625 0
0.109375 0.078125 0
0.109375 0.09375 0
0.109375 0.109375 0
0.109375 0.125 0
0.109375 0.140625 0
0.109375 0.15625 0
0.109375 0.171875 0
0.109375 0.1875 0
0.109375 0.203125 0
0.109375 0.21875 0
0.109375 0.234375 0
0.109375 0.25 0
0.109375 0.265625 0
0.109375 0.28125 0
0.109375 0.296875 0
0.109375 0.3125 0
0.109375 0.328125 0
0.109375 0.34375 0
0.109375 0.359375 0
0.109375 0.375 0
0.109375 0.390625 0
0.109375 0.40625 0
0.109375 0.421875 0
0.109375 0.4375 0
0.109375 0.453125 0
0.109375 0.46875 0
0.109375 0.484375 0
0.109375 0.5 0
0.109375 0.515625 0
0.109375 0.53125 0
0.109375 0.546875 0
0.109375 0.5625 0
0.109375 0.578125 0
0.109375 0.59375 0
0.109375 0.609375 0
0.109375 0.625 0
0.109375 0.640625 0
0.109375 0.65625 0
0.109375 0.671875 0
0.109375 0.6875 0
0.109375 0.703125 0
0.109375 0.71875 0
0.109375 0.734375 0
0.109375 0.75 0
0.109375 0.765625 0
0.109375 0.78125 0
0.109375 0.796875 0
0.109375 0.8125 0
0.109375 0.828125 0
0.109375 0.84375 0
0.109375 0.859375 0
0.109375 0.875 0
0.109375 0.890625 0
0.109375 0.90625 0
0.109375 0.921875 0
0.109375 0.9375 0
0.109375 0.953125 0
0.109375 0.96875 0
0.109375 0.984375 0
0.125 0 0
0.125 0.015625 0
0.125 0.03125 0
0.125 0.046875 0
0.125 0.0625 0
0.125 0.078125 0
0.125 0.09375 0
0.125 0.109375 0
0.125 0.125 0
0.125 0.140625 0
0.125 0.15625 0
0.125 0.171875 0
0.125 0.1875 0
0.125 0.203125 0
0.125 0.21875 0
0.125 0.234375 0
0.125 0.25 0
0.125 0.265625 0
0.125 0.28125 0
0.125 0.296875 0
0.125 0.3125 0
0.125 0.328125 0
0.125 0.34375 0
0.125 0.359375 0
0.125 0.375 0
0.125 0.390625 0
0.125 0.40625 0
0.125 0.421875 0
0.125 0.4375 0
0.125 0.453125 0
0.125 0.46875 0
0.125 0.484375 0
0.125 0.5 0
0.125 0.515625 0
0.125 0.53125 0
0.125 0.546875 0
0.125 0.5625 0
0.125 0.578125 0
0.125 0.59375 0
0.125 0.609375 0
0.125 0.625 0
0.125 0.640625 0
0.125 0.65625 0
0.125 0.671875 0
0.125 0.6875 0
0.125 0.703125 0
0.125 0.71875 0
0.125 0.734375 0
0.125 0.75 0
0.125 0.765625 0
0.125 0.78125 0
0.125 0.796875 0
0.125 0.8125 0
0.125 0.828125 0
[...]
POINT_DATA 4096
SCALARS values float
LOOKUP_TABLE default
0
0
0
0
0
0
0
0
0
0
0
0
0
0
0
0
0
0
0
0
0
0
0
0
0
0
0
0
0
0
0
0
0
0
0
0
0
0
0
0
0
0
0
0
0
0
0
0
0
0
0
0
0
0
0
0
0
0
0
0
0
0
0
0
0
0.0099219776
0.019745346
0.029372476
0.03870769
0.047658209
0.05613508
0.064054054
0.071336431
0.077909834
0.083708935
0.088676098
0.092761959
0.095925909
0.098136505
0.099371776
0.099619445
0.098877052
0.097151974
0.094461357
0.09083194
0.086299794
0.080909962
0.074716011
0.067779498
0.060169362
0.051961236
0.043236696
0.03408245
0.024589478
0.014852124
0.0049671634
-0.0049671634
-0.014852124
-0.024589478
-0.03408245
-0.043236696
-0.051961236
-0.060169362
-0.067779498
-0.074716011
-0.080909962
-0.086299794
-0.09083194
-0.094461357
-0.097151974
-0.098877052
-0.099619445
-0.099371776
-0.098136505
-0.095925909
-0.092761959
-0.088676098
-0.083708935
-0.077909834
-0.071336431
-0.064054054
-0.05613508
-0.047658209
-0.03870769
-0.029372476
-0.019745346
-0.0099219776
0
0
0.019745346
0.039294454
0.058453036
0.077030686
0.09484277
0.11171226
0.12747151
0.14196389
0.15504537
0.16658593
0.17647089
0.18460201
0.19089846
0.19529768
0.19775595
0.19824883
0.19677142
0.19333841
0.18798391
0.18076115
0.1717419
0.1610158
0.14868946
0.13488537
0.11974073
0.10340606
0.086043687
0.067826174
0.048934575
0.029556641
0.0098849608
-0.0098849608
-0.029556641
-0.048934575
-0.067826174
-0.086043687
-0.10340606
-0.11974073
-0.13488537
-0.14868946
-0.1610158
-0.1717419
-0.18076115
-0.18798391
-0.19333841
-0.19677142
-0.19824883
-0.19775595
-0.19529768
-0.19089846
-0.18460201
-0.17647089
-0.16658593
-0.15504537
-0.14196389
-0.12747151
-0.11171226
-0.09484277
-0.077030686
-0.058453036
-0.039294454
-0.019745346
0
0
0.029372476
0.058453036
0.086952663
0.11458812
0.14108474
0.1661792
0.1896221
0.21118045
0.23063999
0.24780732
0.26251184
0.2746074
0.28397378
0.29051791
0.29417474
0.29490792
0.29271018
0.28760336
0.2796382
0.26889388
0.25547716
0.2395214
0.22118517
0.2006507
0.17812207
0.15382318
0.12799554
0.10089581
0.072793338
0.043967411
0.014704517
-0.014704517
-0.043967411
-0.072793338
-0.10089581
-0.12799554
-0.15382318
-0.17812207
-0.2006507
-0.22118517
-0.2395214
-0.25547716
-0.26889388
-0.2796382
-0.28760336
-0.29271018
-0.29490792
-0.29417474
-0.29051791
-0.28397378
-0.2746074
-0.26251184
-0.24780732
-0.23063999
-0.21118045
-0.1896221
-0.1661792
-0.14108474
-0.11458812
-0.086952663
-0.058453036
-0.029372476
0
0
0.03870769
0.077030686
0.11458812
0.15100672
0.18592455
0.21899457
0.24988814
0.2782982
0.3039424
0.3265659
0.34594383
0.36188362
0.37422684
0.38285084
0.38766988
0.38863609
0.38573986
0.37900998
0.36851332
0.35435421
0.33667337
0.31564652
0.29148264
0.26442186
0.23473315
0.20271155
0.16867531
0.1329627
0.095928648
0.057941213
0.019377933
-0.019377933
-0.057941213
-0.095928648
-0.1329627
-0.16867531
-0.20271155
-0.23473315
-0.26442186
-0.29148264
-0.31564652
-0.33667337
-0.35435421
-0.36851332
-0.37900998
-0.38573986
-0.38863609
-0.38766988
-0.38285084
-0.37422684
-0.36188362
-0.34594383
-0.3265659
-0.3039424
-0.2782982
-0.24988814
-0.21899457
-0.18592455
-0.15100672
-0.11458812
-0.077030686
-0.03870769
0
0
0.047658209
0.09484277
0.14108474
0.18592455
0.22891655
0.26963348
0.30767067
0.34265009
0.37422411
0.40207891
0.42593767
0.44556327
0.46076067
0.47137882
0.47731219
0.47850182
0.47493589
0.46664983
0.45372599
0.43629282
0.41452358
0.38863461
0.35888322
0.32556509
0.28901134
0.24958527
0.20767871
0.16370815
0.11811058
0.07133917
0.023858763
-0.023858763
-0.07133917
-0.11811058
-0.16370815
-0.20767871
-0.24958527
-0.28901134
-0.32556509
-0.35888322
-0.38863461
-0.41452358
-0.43629282
-0.45372599
-0.46664983
-0.47493589
-0.47850182
-0.47731219
-0.47137882
-0.46076067
-0.44556327
-0.42593767
-0.40207891
-0.37422411
-0.34265009
-0.30767067
-0.26963348
-0.22891655
-0.18592455
-0.14108474
-0.09484277
-0.047658209
0
0
0.05613508
0.11171226
0.1661792
0.21899457
0.26963348
0.31759265
0.36239544
0.40359658
0.4407866
0.47359588
0.50169835
0.52481472
0.54271525
0.55522203
0.56221076
0.56361199
0.55941179
0.5496519
0.53442932
0.51389535
0.48825406
0.45776027
0.42271706
0.3834727
0.34041721
0.2939785
0.24461811
0.19282659
0.13911867
0.084028125
0.028102473
-0.028102473
-0.084028125
-0.13911867
-0.19282659
-0.24461811
-0.2939785
-0.34041721
-0.3834727
-0.42271706
-0.45776027
-0.48825406
-0.51389535
-0.53442932
-0.5496519
-0.55941179
-0.56361199
-0.56221076
-0.55522203
-0.54271525
-0.52481472
-0.50169835
-0.47359588
-0.4407866
-0.40359658
-0.36239544
-0.31759265
-0.26963348
-0.21899457
-0.1661792
-0.11171226
-0.05613508
0
0
0.064054054
0.12747151
0.1896221
0.24988814
0.30767067
0.36239544
0.41351856
0.46053195
0.50296836
0.54040604
0.57247293
0.59885033
0.61927608
0.63354719
0.64152182
0.64312072
0.638328
0.62719128
0.60982126
0.58639056
0.55713205
0.52233651
0.48234975
0.43756919
0.38843986
0.33545005
0.27912638
0.22002863
0.15874414
0.095881971
0.032066889
-0.032066889
-0.095881971
-0.15874414
-0.22002863
-0.27912638
-0.33545005
-0.38843986
-0.43756919
-0.48234975
-0.52233651
-0.55713205
-0.58639056
-0.60982126
-0.62719128
-0.638328
-0.64312072
-0.64152182
-0.63354719
-0.61927608
-0.59885033
-0.57247293
-0.54040604
-0.50296836
-0.46053195
-0.41351856
-0.36239544
-0.30767067
-0.24988814
-0.1896221
-0.12747151
-0.064054054
0
0
0.071336431
0.14196389
0.21118045
0.2782982
0.34265009
0.40359658
0.46053195
0.51289034
0.56015139
0.60184541
0.63755802
0.66693429
0.68968227
0.70557587
0.71445715
0.71623783
0.71090022
0.69849736
0.67915252
0.65305796
0.62047301
0.58172153
0.53718863
0.48731691
0.43260202
0.37358774
0.31086057
0.24504393
0.17679193
0.1067829
0.035712609
-0.035712609
-0.1067829
-0.17679193
-0.24504393
-0.31086057
-0.37358774
-0.43260202
-0.48731691
-0.53718863
-0.58172153
-0.62047301
-0.65305796
-0.67915252
-0.69849736
-0.71090022
-0.71623783
-0.71445715
-0.70557587
-0.68968227
-0.66693429
-0.63755802
-0.60184541
-0.56015139
-0.51289034
-0.46053195
-0.40359658
-0.34265009
-0.2782982
-0.21118045
-0.14196389
-0.071336431
0
0
0.077909834
0.15504537
0.23063999
0.3039424
0.37422411
0.4407866
0.50296836
0.56015139
0.61176739
0.65730337
0.69630677
0.72838996
0.75323408
0.77059223
0.78029189
0.78223665
0.77640719
0.76286145
0.74173406
0.71323497
0.67764743
0.63532514
0.58668869
0.53222147
0.47246479
0.40801254
0.33950529
0.26762387
0.19308269
0.11662257
0.039003402
-0.039003402
-0.11662257
-0.19308269
-0.26762387
-0.33950529
-0.40801254
-0.47246479
-0.53222147
-0.58668869
-0.63532514
-0.67764743
-0.71323497
-0.74173406
-0.76286145
-0.77640719
-0.78223665
-0.78029189
-0.77059223
-0.75323408
-0.72838996
-0.69630677
-0.65730337
-0.61176739
-0.56015139
-0.50296836
-0.4407866
-0.37422411
-0.3039424
-0.23063999
-0.15504537
-0.077909834
0
0
0.083708935
0.16658593
0.24780732
0.3265659
0.40207891
0.47359588
0.54040604
0.60184541
0.65730337
0.70622874
0.7481353
0.78260656
0.80929992
0.82795009
0.83837173
0.84046125
0.83419789
0.81964389
0.7969439
0.76632353
0.72808709
0.6826146
0.63035797
0.57183656
0.50763199
0.43838234
0.36477585
0.28754405
0.20745451
0.1253032
0.041906561
-0.041906561
-0.1253032
-0.20745451
-0.28754405
-0.36477585
-0.43838234
-0.50763199
-0.57183656
-0.63035797
-0.6826146
-0.72808709
-0.76632353
-0.7969439
-0.81964389
-0.83419789
-0.84046125
-0.83837173
-0.82795009
-0.80929992
-0.78260656
-0.7481353
-0.70622874
-0.65730337
-0.60184541
-0.54040604
-0.47359588
-0.40207891
-0.3265659
-0.24780732
-0.16658593
-0.083708935
0
0
0.088676098
0.17647089
0.26251184
0.34594383
0.42593767
0.50169835
0.57247293
0.63755802
0.69630677
0.7481353
0.79252854
0.82904527
0.85732257
0.87707942
0.88811946
0.89033296
0.88369794
0.86828034
0.84423337
0.81179603
0.7712907
0.72311993
0.66776247
0.60576849
0.53775411
0.46439529
0.3864211
0.30460649
0.21976455
0.1327385
0.044393233
-0.044393233
-0.1327385
-0.21976455
-0.30460649
-0.3864211
-0.46439529
-0.53775411
-0.60576849
-0.66776247
-0.72311993
-0.7712907
-0.81179603
-0.84423337
-0.86828034
-0.88369794
-0.89033296
-0.88811946
-0.87707942
-0.85732257
-0.82904527
-0.79252854
-0.7481353
-0.69630677
-0.63755802
-0.57247293
-0.50169835
-0.42593767
-0.34594383
-0.26251184
-0.17647089
-0.088676098
0
0
0.092761959
0.18460201
0.2746074
0.36188362
0.44556327
0.52481472
0.59885033
0.66693429
0.72838996
0.78260656
0.82904527
0.86724455
0.89682476
0.91749193
0.92904065
0.93135615
0.92441542
0.90828742
0.88313246
0.84920053
0.80682887
0.75643857
0.69853045
0.63368002
0.5625318
0.48579288
0.40422593
0.3186416
0.22989047
0.13885459
0.046438706
-0.046438706
-0.13885459
-0.22989047
-0.3186416
-0.40422593
-0.48579288
-0.5625318
-0.63368002
-0.69853045
-0.75643857
-0.80682887
-0.84920053
-0.88313246
-0.90828742
-0.92441542
-0.93135615
-0.92904065
-0.91749193
-0.89682476
-0.86724455
-0.82904527
-0.78260656
-0.72838996
-0.66693429
-0.59885033
-0.52481472
-0.44556327
-0.36188362
-0.2746074
-0.18460201
-0.092761959
0
0
0.095925909
0.19089846
0.28397378
0.37422684
0.46076067
0.54271525
0.61927608
0.68968227
0.75323408
0.80929992
0.85732257
0.89682476
0.92741391
0.948786
0.96072863
0.96312311
0.95594563
0.93926754
0.91325459
0.8781653
0.83434841
0.78223939
0.72235612
0.65529376
0.58171879
0.50236244
0.41801338
0.32950992
0.23773164
0.14359068
0.04802265
-0.04802265
-0.14359068
-0.23773164
-0.32950992
-0.41801338
-0.50236244
-0.58171879
-0.65529376
-0.72235612
-0.78223939
-0.83434841
-0.8781653
-0.91325459
-0.93926754
-0.95594563
-0.96312311
-0.96072863
-0.948786
-0.92741391
-0.89682476
-0.85732257
-0.80929992
-0.75323408
-0.68968227
-0.61927608
-0.54271525
-0.46076067
-0.37422684
-0.28397378
-0.19089846
-0.095925909
0
0
0.098136505
0.19529768
0.29051791
0.38285084
0.47137882
0.55522203
0.63354719
0.70557587
0.77059223
0.82795009
0.87707942
0.91749193
0.948786
0.97065061
0.98286845
0.98531811
0.97797523
0.96091279
0.93430038
0.89840246
0.85357582
0.80026596
0.73900269
0.67039489
0.59512439
0.51393929
0.42764642
0.33710342
0.24321013
0.1468997
0.049129324
-0.049129324
-0.1468997
-0.24321013
-0.33710342
-0.42764642
-0.51393929
-0.59512439
-0.67039489
-0.73900269
-0.80026596
-0.85357582
-0.89840246
-0.93430038
-0.96091279
-0.97797523
-0.98531811
-0.98286845
-0.97065061
-0.948786
-0.91749193
-0.87707942
-0.82795009
-0.77059223
-0.70557587
-0.63354719
-0.55522203
-0.47137882
-0.38285084
-0.29051791
-0.19529768
-0.098136505
0
0
0.099371776
0.19775595
0.29417474
0.38766988
0.47731219
0.56221076
0.64152182
0.71445715
0.78029189
0.83837173
0.88811946
0.92904065
0.96072863
0.98286845
0.99524009
0.99772058
0.99028527
0.97300807
0.94606067
0.9097109
0.86432001
0.81033912
0.74830472
0.67883333
0.60261539
0.52040838
0.43302933
0.34134663
0.24627148
0.14874877
0.049747728
-0.049747728
-0.14874877
-0.24627148
-0.34134663
-0.43302933
-0.52040838
-0.60261539
-0.67883333
-0.74830472
-0.81033912
-0.86432001
-0.9097109
-0.94606067
-0.97300807
-0.99028527
-0.99772058
-0.99524009
-0.98286845
-0.96072863
-0.92904065
-0.88811946
-0.83837173
-0.78029189
-0.71445715
-0.64152182
-0.56221076
-0.47731219
-0.38766988
-0.29417474
-0.19775595
-0.099371776
0
0
0.099619445
0.19824883
0.29490792
0.38863609
0.47850182
0.56361199
0.64312072
0.71623783
0.78223665
0.84046125
0.89033296
0.93135615
0.96312311
0.98531811
0.99772058
1.0002072
0.99275341
0.97543315
0.94841859
0.91197822
0.8664742
0.81235877
0.75016976
0.68052522
0.60411732
0.52170543
0.43410859
0.34219739
0.24688527
0.1491195
0.049871717
-0.049871717
-0.1491195
-0.24688527
-0.34219739
-0.43410859
-0.52170543
-0.60411732
-0.68052522
-0.75016976
-0.81235877
-0.8664742
-0.91197822
-0.94841859
-0.97543315
-0.99275341
-1.0002072
-0.99772058
-0.98531811
-0.96312311
-0.93135615
-0.89033296
-0.84046125
-0.78223665
-0.71623783
-0.64312072
-0.56361199
-0.47850182
-0.38863609
-0.29490792
-0.19824883
-0.099619445
0
0
0.098877052
0.19677142
0.29271018
0.38573986
0.47493589
0.55941179
0.638328
0.71090022
0.77640719
0.83419789
0.88369794
0.92441542
0.95594563
0.97797523
0.99028527
0.99275341
0.98535512
0.96816393
0.9413507
0.90518189
0.86001698
0.80630484
0.74457928
0.67545375
0.59961526
0.51781752
0.43087349
0.33964723
0.24504541
0.14800822
0.049500059
-0.049500059
-0.14800822
-0.24504541
-0.33964723
-0.43087349
-0.51781752
-0.59961526
-0.67545375
-0.74457928
-0.80630484
-0.86001698
-0.90518189
-0.9413507
-0.96816393
-0.98535512
-0.99275341
-0.99028527
-0.97797523
-0.95594563
-0.92441542
-0.88369794
-0.83419789
-0.77640719
-0.71090022
-0.638328
-0.55941179
-0.47493589
-0.38573986
-0.29271018
-0.19677142
-0.098877052
0
0
0.097151974
0.19333841
0.28760336
0.37900998
0.46664983
0.5496519
0.62719128
0.69849736
0.76286145
0.81964389
0.86828034
0.90828742
0.93926754
0.96091279
0.97300807
0.97543315
0.96816393
0.95127267
0.92492724
0.88938946
0.84501253
0.79223749
0.73158883
0.66366931
0.58915396
0.50878332
0.42335617
0.33372151
0.24077018
0.14542597
0.048636446
-0.048636446
-0.14542597
-0.24077018
-0.33372151
-0.42335617
-0.50878332
-0.58915396
-0.66366931
-0.73158883
-0.79223749
-0.84501253
-0.88938946
-0.92492724
-0.95127267
-0.96816393
-0.97543315
-0.97300807
-0.96091279
-0.93926754
-0.90828742
-0.86828034
-0.81964389
-0.76286145
-0.69849736
-0.62719128
-0.5496519
-0.46664983
-0.37900998
-0.28760336
-0.19333841
-0.097151974
0
0
0.094461357
0.18798391
0.2796382
0.36851332
0.45372599
0.53442932
0.60982126
0.67915252
0.74173406
0.7969439
0.84423337
0.88313246
0.91325459
0.93430038
0.94606067
0.94841859
0.9413507
0.92492724
0.89931144
0.86475788
0.82160996
0.77029652
0.71132752
0.64528904
0.57283737
0.4946926
0.41163135
0.32447912
0.23410207
0.1413984
0.047289463
-0.047289463
-0.1413984
-0.23410207
-0.32447912
-0.41163135
-0.4946926
-0.57283737
-0.64528904
-0.71132752
-0.77029652
-0.82160996
-0.86475788
-0.89931144
-0.92492724
-0.9413507
-0.94841859
-0.94606067
-0.93430038
-0.91325459
-0.88313246
-0.84423337
-0.7969439
-0.74173406
-0.67915252
-0.60982126
-0.53442932
-0.45372599
-0.36851332
-0.2796382
-0.18798391
-0.094461357
0
0
0.09083194
0.18076115
0.26889388
0.35435421
0.43629282
0.51389535
0.58639056
0.65305796
0.71323497
0.76632353
0.81179603
0.84920053
0.8781653
0.89840246
0.9097109
0.91197822
0.90518189
0.88938946
0.86475788
0.83153194
0.79004187
0.7407
0.68399673
0.62049558
0.55082768
0.4756854
0.39581555
0.3120119
0.22510734
0.13596556
0.045472496
-0.045472496
-0.13596556
-0.22510734
-0.3120119
-0.39581555
-0.4756854
-0.55082768
-0.62049558
-0.68399673
-0.7407
-0.79004187
-0.83153194
-0.86475788
-0.88938946
-0.90518189
-0.91197822
-0.9097109
-0.89840246
-0.8781653
-0.84920053
-0.81179603
-0.76632353
-0.71323497
-0.65305796
-0.58639056
-0.51389535
-0.43629282
-0.35435421
-0.26889388
-0.18076115
-0.09083194
0
0
0.086299794
0.1717419
0.25547716
0.33667337
0.41452358
0.48825406
0.55713205
0.62047301
0.67764743
0.72808709
0.7712907
0.80682887
0.83434841
0.85357582
0.86432001
0.8664742
0.86001698
0.84501253
0.82160996
0.79004187
0.75062198
0.70374207
0.64986806
0.58953537
0.52334361
0.45195063
0.37606595
0.29644377
0.2138754
0.12918143
0.043203602
-0.043203602
-0.12918143
-0.2138754
-0.29644377
-0.37606595
-0.45195063
-0.52334361
-0.58953537
-0.64986806
-0.70374207
-0.75062198
-0.79004187
-0.82160996
-0.84501253
-0.86001698
-0.8664742
-0.86432001
-0.85357582
-0.83434841
-0.80682887
-0.7712907
-0.72808709
-0.67764743
-0.62047301
-0.55713205
-0.48825406
-0.41452358
-0.33667337
-0.25547716
-0.1717419
-0.086299794
0
0
0.080909962
0.1610158
0.2395214
0.31564652
0.38863461
0.45776027
0.52233651
0.58172153
0.63532514
0.6826146
0.72311993
0.75643857
0.78223939
0.80026596
0.81033912
0.81235877
0.80630484
0.79223749
0.77029652
0.7407
0.70374207
0.65979004
0.60928071
0.55271609
0.49065832
0.42372416
0.35257885
0.27792945
0.20051786
0.12111344
0.040505332
-0.040505332
-0.12111344
-0.20051786
-0.27792945
-0.35257885
-0.42372416
-0.49065832
-0.55271609
-0.60928071
-0.65979004
-0.70374207
-0.7407
-0.77029652
-0.79223749
-0.80630484
-0.81235877
-0.81033912
-0.80026596
-0.78223939
-0.75643857
-0.72311993
-0.6826146
-0.63532514
-0.58172153
-0.52233651
-0.45776027
-0.38863461
-0.31564652
-0.2395214
-0.1610158
-0.080909962
0
0
0.074716011
0.14868946
0.22118517
0.29148264
0.35888322
0.42271706
0.48234975
0.53718863
0.58668869
0.63035797
0.66776247
0.69853045
0.72235612
0.73900269
0.74830472
0.75016976
0.74457928
0.73158883
0.71132752
0.68399673
0.64986806
0.60928071
0.56263806
0.51040366
0.45309664
0.39128654
0.32558766
0.25665294
0.18516749
0.11184176
0.037404502
-0.037404502
-0.11184176
-0.18516749
-0.25665294
-0.32558766
-0.39128654
-0.45309664
-0.51040366
-0.56263806
-0.60928071
-0.64986806
-0.68399673
-0.71132752
-0.73158883
-0.74457928
-0.75016976
-0.74830472
-0.73900269
-0.72235612
-0.69853045
-0.66776247
-0.63035797
-0.58668869
-0.53718863
-0.48234975
-0.42271706
-0.35888322
-0.29148264
-0.22118517
-0.14868946
-0.074716011
0
0
0.067779498
0.13488537
0.2006507
0.26442186
0.32556509
0.3834727
0.43756919
0.48731691
0.53222147
0.57183656
0.60576849
0.63368002
0.65529376
0.67039489
0.67883333
0.68052522
0.67545375
0.66366931
0.64528904
0.62049558
0.58953537
0.55271609
0.51040366
0.46301862
0.41103189
0.35496014
0.29536063
0.2328257
0.16797684
0.10145856
0.033931929
-0.033931929
-0.10145856
-0.16797684
-0.2328257
-0.29536063
-0.35496014
-0.41103189
-0.46301862
-0.51040366
-0.55271609
-0.58953537
-0.62049558
-0.64528904
-0.66366931
-0.67545375
-0.68052522
-0.67883333
-0.67039489
-0.65529376
-0.63368002
-0.60576849
-0.57183656
-0.53222147
-0.48731691
-0.43756919
-0.3834727
-0.32556509
-0.26442186
-0.2006507
-0.13488537
-0.067779498
0
0
0.060169362
0.11974073
0.17812207
0.23473315
0.28901134
0.34041721
0.38843986
0.43260202
0.47246479
0.50763199
0.53775411
0.5625318
0.58171879
0.59512439
0.60261539
0.60411732
0.59961526
0.58915396
0.57283737
0.55082768
0.52334361
0.49065832
0.45309664
0.41103189
0.36488211
0.31510598
0.26219818
0.20668453
0.14911677
0.090067009
0.030122125
-0.030122125
-0.090067009
-0.14911677
-0.20668453
-0.26219818
-0.31510598
-0.36488211
-0.41103189
-0.45309664
-0.49065832
-0.52334361
-0.55082768
-0.57283737
-0.58915396
-0.59961526
-0.60411732
-0.60261539
-0.59512439
-0.58171879
-0.5625318
-0.53775411
-0.50763199
-0.47246479
-0.43260202
-0.38843986
-0.34041721
-0.28901134
-0.23473315
-0.17812207
-0.11974073
-0.060169362
0
0
0.051961236
0.10340606
0.15382318
0.20271155
0.24958527
0.2939785
0.33545005
0.37358774
0.40801254
0.43838234
0.46439529
0.48579288
0.50236244
0.51393929
0.52040838
0.52170543
0.51781752
0.50878332
0.4946926
0.4756854
0.45195063
0.42372416
0.39128654
0.35496014
0.31510598
0.27212015
0.22642988
0.17848924
0.1287747
0.077780334
0.026012954
-0.026012954
-0.077780334
-0.1287747
-0.17848924
-0.22642988
-0.27212015
-0.31510598
-0.35496014
-0.39128654
-0.42372416
-0.45195063
-0.4756854
-0.4946926
-0.50878332
-0.51781752
-0.52170543
-0.52040838
-0.51393929
-0.50236244
-0.48579288
-0.46439529
-0.43838234
-0.40801254
-0.37358774
-0.33545005
-0.2939785
-0.24958527
-0.20271155
-0.15382318
-0.10340606
-0.051961236
0
0
0.043236696
0.086043687
0.12799554
0.16867531
0.20767871
0.24461811
0.27912638
0.31086057
0.33950529
0.36477585
0.3864211
0.40422593
0.41801338
0.42764642
0.43302933
0.43410859
0.43087349
0.42335617
0.41163135
0.39581555
0.37606595
0.35257885
0.32558766
0.29536063
0.26219818
0.22642988
0.18841122
0.14852004
0.10715281
0.064720644
0.021645255
-0.021645255
-0.064720644
-0.10715281
-0.14852004
-0.18841122
-0.22642988
-0.26219818
-0.29536063
-0.32558766
-0.35257885
-0.37606595
-0.39581555
-0.41163135
-0.42335617
-0.43087349
-0.43410859
-0.43302933
-0.42764642
-0.41801338
-0.40422593
-0.3864211
-0.36477585
-0.33950529
-0.31086057
-0.27912638
-0.24461811
-0.20767871
-0.16867531
-0.12799554
-0.086043687
-0.043236696
0
0
0.03408245
0.067826174
0.10089581
0.1329627
0.16370815
0.19282659
0.22002863
0.24504393
0.26762387
0.28754405
0.30460649
0.3186416
0.32950992
0.33710342
0.34134663
0.34219739
0.33964723
0.33372151
0.32447912
0.3120119
0.29644377
0.27792945
0.25665294
0.2328257
0.20668453
0.17848924
0.14852004
0.11707479
0.08446599
0.051017731
0.017062435
-0.017062435
-0.051017731
-0.08446599
-0.11707479
-0.14852004
-0.17848924