# vtk DataFile Version 3.0
vtk output
ASCII
DATASET STRUCTURED_GRID
DIMENSIONS 100 100 1
POINTS 10000 float
0 0 0
0 0.01 0
0 0.02 0
0 0.03 0
0 0.04 0
0 0.05 0
0 0.06 0
0 0.07 0
0 0.08 0
0 0.09 0
0 0.1 0
0 0.11 0
0 0.12 0
0 0.13 0
0 0.14 0
0 0.15 0
0 0.16 0
0 0.17 0
0 0.18 0
0 0.19 0
0 0.2 0
0 0.21 0
0 0.22 0
0 0.23 0
0 0.24 0
0 0.25 0
0 0.26 0
0 0.27 0
0 0.28 0
0 0.29 0
0 0.3 0
0 0.31 0
0 0.32 0
0 0.33 0
0 0.34 0
0 0.35 0
0 0.36 0
0 0.37 0
0 0.38 0
0 0.39 0
0 0.4 0
0 0.41 0
0 0.42 0
0 0.43 0
0 0.44 0
0 0.45 0
0 0.46 0
0 0.47 0
0 0.48 0
0 0.49 0
0 0.5 0
0 0.51 0
0 0.52 0
0 0.53 0
0 0.54 0
0 0.55 0
0 0.56 0
0 0.57 0
0 0.58 0
0 0.59 0
0 0.6 0
0 0.61 0
0 0.62 0
0 0.63 0
0 0.64 0
0 0.65 0
0 0.66 0
0 0.67 0
0 0.68 0
0 0.69 0
0 0.7 0
0 0.71 0
0 0.72 0
0 0.73 0
0 0.74 0
0 0.75 0
0 0.76 0
0 0.77 0
0 0.78 0
0 0.79 0
0 0.8 0
0 0.81 0
0 0.82 0
0 0.83 0
0 0.84 0
0 0.85 0
0 0.86 0
0 0.87 0
0 0.88 0
0 0.89 0
0 0.9 0
0 0.91 0
0 0.92 0
0 0.93 0
0 0.94 0
0 0.95 0
0 0.96 0
0 0.97 0
0 0.98 0
0 0.99 0
0.01 0 0
0.01 0.01 0
0.01 0.02 0
0.01 0.03 0
0.01 0.04 0
0.01 0.05 0
0.01 0.06 0
0.01 0.07 0
0.01 0.08 0
0.01 0.09 0
0.01 0.1 0
0.01 0.11 0
0.01 0.12 0
0.01 0.13 0
0.01 0.14 0
0.01 0.15 0
0.01 0.16 0
0.01 0.17 0
0.01 0.18 0
0.01 0.19 0
0.01 0.2 0
0.01 0.21 0
0.01 0.22 0
0.01 0.23 0
0.01 0.24 0
0.01 0.25 0
0.01 0.26 0
0.01 0.27 0
0.01 0.28 0
0.01 0.29 0
0.01 0.3 0
0.01 0.31 0
0.01 0.32 0
0.01 0.33 0
0.01 0.34 0
0.01 0.35 0
0.01 0.36 0
0.01 0.37 0
0.01 0.38 0
0.01 0.39 0
0.01 0.4 0
0.01 0.41 0
0.01 0.42 0
0.01 0.43 0
0.01 0.44 0
0.01 0.45 0
0.01 0.46 0
0.01 0.47 0
0.01 0.48 0
0.01 0.49 0
0.01 0.5 0
0.01 0.51 0
0.01 0.52 0
0.01 0.53 0
0.01 0.54 0
0.01 0.55 0
0.01 0.56 0
0.01 0.57 0
0.01 0.58 0
0.01 0.59 0
0.01 0.6 0
0.01 0.61 0
0.01 0.62 0
0.01 0.63 0
0.01 0.64 0
0.01 0.65 0
0.01 0.66 0
0.01 0.67 0
0.01 0.68 0
0.01 0.69 0
0.01 0.7 0
0.01 0.71 0
0.01 0.72 0
0.01 0.73 0
0.01 0.74 0
0.01 0.75 0
0.01 0.76 0
0.01 0.77 0
0.01 0.78 0
0.01 0.79 0
0.01 0.8 0
0.01 0.81 0
0.01 0.82 0
0.01 0.83 0
0.01 0.84 0
0.01 0.85 0
0.01 0.86 0
0.01 0.87 0
0.01 0.88 0
0.01 0.89 0
0.01 0.9 0
0.01 0.91 0
0.01 0.92 0
0.01 0.93 0
0.01 0.94 0
0.01 0.95 0
0.01 0.96 0
0.01 0.97 0
0.01 0.98 0
0.01 0.99 0
0.02 0 0
0.02 0.01 0
0.02 0.02 0
0.02 0.03 0
0.02 0.04 0
0.02 0.05 0
0.02 0.06 0
0.02 0.07 0
0.02 0.08 0
0.02 0.09 0
0.02 0.1 0
0.02 0.11 0
0.02 0.12 0
0.02 0.13 0
0.02 0.14 0
0.02 0.15 0
0.02 0.16 0
0.02 0.17 0
0.02 0.18 0
0.02 0.19 0
0.02 0.2 0
0.02 0.21 0
0.02 0.22 0
0.02 0.23 0
0.02 0.24 0
0.02 0.25 0
0.02 0.26 0
0.02 0.27 0
0.02 0.28 0
0.02 0.29 0
0.02 0.3 0
0.02 0.31 0
0.02 0.32 0
0.02 0.33 0
0.02 0.34 0
0.02 0.35 0
0.02 0.36 0
0.02 0.37 0
0.02 0.38 0
0.02 0.39 0
0.02 0.4 0
0.02 0.41 0
0.02 0.42 0
0.02 0.43 0
0.02 0.44 0
0.02 0.45 0
0.02 0.46 0
0.02 0.47 0
0.02 0.48 0
0.02 0.49 0
0.02 0.5 0
0.02 0.51 0
0.02 0.52 0
0.02 0.53 0
0.02 0.54 0
0.02 0.55 0
0.02 0.56 0
0.02 0.57 0
0.02 0.58 0
0.02 0.59 0
0.02 0.6 0
0.02 0.61 0
0.02 0.62 0
0.02 0.63 0
0.02 0.64 0
0.02 0.65 0
0.02 0.66 0
0.02 0.67 0
0.02 0.68 0
0.02 0.69 0
0.02 0.7 0
0.02 0.71 0
0.02 0.72 0
0.02 0.73 0
0.02 0.74 0
0.02 0.75 0
0.02 0.76 0
0.02 0.77 0
0.02 0.78 0
0.02 0.79 0
0.02 0.8 0
0.02 0.81 0
0.02 0.82 0
0.02 0.83 0
0.02 0.84 0
0.02 0.85 0
0.02 0.86 0
0.02 0.87 0
0.02 0.88 0
0.02 0.89 0
0.02 0.9 0
0.02 0.91 0
0.02 0.92 0
0.02 0.93 0
0.02 0.94 0
0.02 0.95 0
0.02 0.96 0
0.02 0.97 0
0.02 0.98 0
0.02 0.99 0
0.03 0 0
0.03 0.01 0
0.03 0.02 0
0.03 0.03 0
0.03 0.04 0
0.03 0.05 0
0.03 0.06 0
0.03 0.07 0
0.03 0.08 0
0.03 0.09 0
0.03 0.1 0
0.03 0.11 0
0.03 0.12 0
0.03 0.13 0
0.03 0.14 0
0.03 0.15 0
0.03 0.16 0
0.03 0.17 0
0.03 0.18 0
0.03 0.19 0
0.03 0.2 0
0.03 0.21 0
0.03 0.22 0
0.03 0.23 0
0.03 0.24 0
0.03 0.25 0
0.03 0.26 0
0.03 0.27 0
0.03 0.28 0
0.03 0.29 0
0.03 0.3 0
0.03 0.31 0
0.03 0.32 0
0.03 0.33 0
0.03 0.34 0
0.03 0.35 0
0.03 0.36 0
0.03 0.37 0
0.03 0.38 0
0.03 0.39 0
0.03 0.4 0
0.03 0.41 0
0.03 0.42 0
0.03 0.43 0
0.03 0.44 0
0.03 0.45 0
0.03 0.46 0
0.03 0.47 0
0.03 0.48 0
0.03 0.49 0
0.03 0.5 0
0.03 0.51 0
0.03 0.52 0
0.03 0.53 0
0.03 0.54 0
0.03 0.55 0
0.03 0.56 0
0.03 0.57 0
0.03 0.58 0
0.03 0.59 0
0.03 0.6 0
0.03 0.61 0
0.03 0.62 0
0.03 0.63 0
0.03 0.64 0
0.03 0.65 0
0.03 0.66 0
0.03 0.67 0
0.03 0.68 0
0.03 0.69 0
0.03 0.7 0
0.03 0.71 0
0.03 0.72 0
0.03 0.73 0
0.03 0.74 0
0.03 0.75 0
0.03 0.76 0
0.03 0.77 0
0.03 0.78 0
0.03 0.79 0
0.03 0.8 0
0.03 0.81 0
0.03 0.82 0
0.03 0.83 0
0.03 0.84 0
0.03 0.85 0
0.03 0.86 0
0.03 0.87 0
0.03 0.88 0
0.03 0.89 0
0.03 0.9 0
0.03 0.91 0
0.03 0.92 0
0.03 0.93 0
0.03 0.94 0
0.03 0.95 0
0.03 0.96 0
0.03 0.97 0
0.03 0.98 0
0.03 0.99 0
0.04 0 0
0.04 0.01 0
0.04 0.02 0
0.04 0.03 0
0.04 0.04 0
0.04 0.05 0
0.04 0.06 0
0.04 0.07 0
0.04 0.08 0
0.04 0.09 0
0.04 0.1 0
0.04 0.11 0
0.04 0.12 0
0.04 0.13 0
0.04 0.14 0
0.04 0.15 0
0.04 0.16 0
0.04 0.17 0
0.04 0.18 0
0.04 0.19 0
0.04 0.2 0
0.04 0.21 0
0.04 0.22 0
0.04 0.23 0
0.04 0.24 0
0.04 0.25 0
0.04 0.26 0
0.04 0.27 0
0.04 0.28 0
0.04 0.29 0
0.04 0.3 0
0.04 0.31 0
0.04 0.32 0
0.04 0.33 0
0.04 0.34 0
0.04 0.35 0
0.04 0.36 0
0.04 0.37 0
0.04 0.38 0
0.04 0.39 0
0.04 0.4 0
0.04 0.41 0
0.04 0.42 0
0.04 0.43 0
0.04 0.44 0
0.04 0.45 0
0.04 0.46 0
0.04 0.47 0
0.04 0.48 0
0.04 0.49 0
0.04 0.5 0
0.04 0.51 0
0.04 0.52 0
0.04 0.53 0
0.04 0.54 0
0.04 0.55 0
0.04 0.56 0
0.04 0.57 0
0.04 0.58 0
0.04 0.59 0
0.04 0.6 0
0.04 0.61 0
0.04 0.62 0
0.04 0.63 0
0.04 0.64 0
0.04 0.65 0
0.04 0.66 0
0.04 0.67 0
0.04 0.68 0
0.04 0.69 0
0.04 0.7 0
0.04 0.71 0
0.04 0.72 0
0.04 0.73 0
0.04 0.74 0
0.04 0.75 0
0.04 0.76 0
0.04 0.77 0
0.04 0.78 0
0.04 0.79 0
0.04 0.8 0
0.04 0.81 0
0.04 0.82 0
0.04 0.83 0
0.04 0.84 0
0.04 0.85 0
0.04 0.86 0
0.04 0.87 0
0.04 0.88 0
0.04 0.89 0
0.04 0.9 0
0.04 0.91 0
0.04 0.92 0
0.04 0.93 0
0.04 0.94 0
0.04 0.95 0
0.04 0.96 0
0.04 0.97 0
0.04 0.98 0
0.04 0.99 0
0.05 0 0
0.05 0.01 0
0.05 0.02 0
0.05 0.03 0
0.05 0.04 0
0.05 0.05 0
0.05 0.06 0
0.05 0.07 0
0.05 0.08 0
0.05 0.09 0
0.05 0.1 0
0.05 0.11 0
0.05 0.12 0
0.05 0.13 0
0.05 0.14 0
0.05 0.15 0
0.05 0.16 0
0.05 0.17 0
0.05 0.18 0
0.05 0.19 0
0.05 0.2 0
0.05 0.21 0
0.05 0.22 0
0.05 0.23 0
0.05 0.24 0
0.05 0.25 0
0.05 0.26 0
0.05 0.27 0
0.05 0.28 0
0.05 0.29 0
0.05 0.3 0
0.05 0.31 0
0.05 0.32 0
0.05 0.33 0
0.05 0.34 0
0.05 0.35 0
0.05 0.36 0
0.05 0.37 0
0.05 0.38 0
0.05 0.39 0
0.05 0.4 0
0.05 0.41 0
0.05 0.42 0
0.05 0.43 0
0.05 0.44 0
0.05 0.45 0
0.05 0.46 0
0.05 0.47 0
0.05 0.48 0
0.05 0.49 0
0.05 0.5 0
0.05 0.51 0
0.05 0.52 0
0.05 0.53 0
0.05 0.54 0
0.05 0.55 0
0.05 0.56 0
0.05 0.57 0
0.05 0.58 0
0.05 0.59 0
0.05 0.6 0
0.05 0.61 0
0.05 0.62 0
0.05 0.63 0
0.05 0.64 0
0.05 0.65 0
0.05 0.66 0
0.05 0.67 0
0.05 0.68 0
0.05 0.69 0
0.05 0.7 0
0.05 0.71 0
0.05 0.72 0
0.05 0.73 0
0.05 0.74 0
0.05 0.75 0
0.05 0.76 0
0.05 0.77 0
0.05 0.78 0
0.05 0.79 0
0.05 0.8 0
0.05 0.81 0
0.05 0.82 0
0.05 0.83 0
0.05 0.84 0
0.05 0.85 0
0.05 0.86 0
0.05 0.87 0
0.05 0.88 0
0.05 0.89 0
0.05 0.9 0
0.05 0.91 0
0.05 0.92 0
0.05 0.93 0
0.05 0.94 0
0.05 0.95 0
0.05 0.96 0
0.05 0.97 0
0.05 0.98 0
0.05 0.99 0
0.06 0 0
0.06 0.01 0
0.06 0.02 0
0.06 0.03 0
0.06 0.04 0
0.06 0.05 0
0.06 0.06 0
0.06 0.07 0
0.06 0.08 0
0.06 0.09 0
0.06 0.1 0
0.06 0.11 0
0.06 0.12 0
0.06 0.13 0
0.06 0.14 0
0.06 0.15 0
0.06 0.16 0
0.06 0.17 0
0.06 0.18 0
0.06 0.19 0
0.06 0.2 0
0.06 0.21 0
0.06 0.22 0
0.06 0.23 0
0.06 0.24 0
0.06 0.25 0
0.06 0.26 0
0.06 0.27 0
0.06 0.28 0
0.06 0.29 0
0.06 0.3 0
0.06 0.31 0
0.06 0.32 0
0.06 0.33 0
0.06 0.34 0
0.06 0.35 0
0.06 0.36 0
0.06 0.37 0
0.06 0.38 0
0.06 0.39 0
0.06 0.4 0
0.06 0.41 0
0.06 0.42 0
0.06 0.43 0
0.06 0.44 0
0.06 0.45 0
0.06 0.46 0
0.06 0.47 0
0.06 0.48 0
0.06 0.49 0
0.06 0.5 0
0.06 0.51 0
0.06 0.52 0
0.06 0.53 0
0.06 0.54 0
0.06 0.55 0
0.06 0.56 0
0.06 0.57 0
0.06 0.58 0
0.06 0.59 0
0.06 0.6 0
0.06 0.61 0
0.06 0.62 0
0.06 0.63 0
0.06 0.64 0
0.06 0.65 0
0.06 0.66 0
0.06 0.67 0
0.06 0.68 0
0.06 0.69 0
0.06 0.7 0
0.06 0.71 0
0.06 0.72 0
0.06 0.73 0
0.06 0.74 0
0.06 0.75 0
0.06 0.76 0
0.06 0.77 0
0.06 0.78 0
0.06 0.79 0
0.06 0.8 0
0.06 0.81 0
0.06 0.82 0
0.06 0.83 0
0.06 0.84 0
0.06 0.85 0
0.06 0.86 0
0.06 0.87 0
0.06 0.88 0
0.06 0.89 0
0.06 0.9 0
0.06 0.91 0
0.06 0.92 0
0.06 0.93 0
0.06 0.94 0
0.06 0.95 0
0.06 0.96 0
0.06 0.97 0
0.06 0.98 0
0.06 0.99 0
0.07 0 0
0.07 0.01 0
0.07 0.02 0
0.07 0.03 0
0.07 0.04 0
0.07 0.05 0
0.07 0.06 0
0.07 0.07 0
0.07 0.08 0
0.07 0.09 0
0.07 0.1 0
0.07 0.11 0
0.07 0.12 0
0.07 0.13 0
0.07 0.14 0
0.07 0.15 0
0.07 0.16 0
0.07 0.17 0
0.07 0.18 0
0.07 0.19 0
0.07 0.2 0
0.07 0.21 0
0.07 0.22 0
0.07 0.23 0
0.07 0.24 0
0.07 0.25 0
0.07 0.26 0
0.07 0.27 0
0.07 0.28 0
0.07 0.29 0
0.07 0.3 0
0.07 0.31 0
0.07 0.32 0
0.07 0.33 0
0.07 0.34 0
0.07 0.35 0
0.07 0.36 0
0.07 0.37 0
0.07 0.38 0
0.07 0.39 0
0.07 0.4 0
0.07 0.41 0
0.07 0.42 0
0.07 0.43 0
0.07 0.44 0
0.07 0.45 0
0.07 0.46 0
0.07 0.47 0
0.07 0.48 0
0.07 0.49 0
0.07 0.5 0
0.07 0.51 0
0.07 0.52 0
0.07 0.53 0
0.07 0.54 0
0.07 0.55 0
0.07 0.56 0
0.07 0.57 0
0.07 0.58 0
0.07 0.59 0
0.07 0.6 0
0.07 0.61 0
0.07 0.62 0
0.07 0.63 0
0.07 0.64 0
0.07 0.65 0
0.07 0.66 0
0.07 0.67 0
0.07 0.68 0
0.07 0.69 0
0.07 0.7 0
0.07 0.71 0
0.07 0.72 0
0.07 0.73 0
0.07 0.74 0
0.07 0.75 0
0.07 0.76 0
0.07 0.77 0
0.07 0.78 0
0.07 0.79 0
0.07 0.8 0
0.07 0.81 0
0.07 0.82 0
0.07 0.83 0
0.07 0.84 0
0.07 0.85 0
0.07 0.86 0
0.07 0.87 0
0.07 0.88 0
0.07 0.89 0
0.07 0.9 0
0.07 0.91 0
0.07 0.92 0
0.07 0.93 0
0.07 0.94 0
0.07 0.95 0
0.07 0.96 0
0.07 0.97 0
0.07 0.98 0
0.07 0.99 0
0.08 0 0
0.08 0.01 0
0.08 0.02 0
0.08 0.03 0
0.08 0.04 0
0.08 0.05 0
0.08 0.06 0
0.08 0.07 0
0.08 0.08 0
0.08 0.09 0
0.08 0.1 0
0.08 0.11 0
0.08 0.12 0
0.08 0.13 0
0.08 0.14 0
0.08 0.15 0
0.08 0.16 0
0.08 0.17 0
0.08 0.18 0
0.08 0.19 0
0.08 0.2 0
0.08 0.21 0
0.08 0.22 0
0.08 0.23 0
0.08 0.24 0
0.08 0.25 0
0.08 0.26 0
0.08 0.27 0
0.08 0.28 0
0.08 0.29 0
0.08 0.3 0
0.08 0.31 0
0.08 0.32 0
0.08 0.33 0
0.08 0.34 0
0.08 0.35 0
0.08 0.36 0
0.08 0.37 0
0.08 0.38 0
0.08 0.39 0
0.08 0.4 0
0.08 0.41 0
0.08 0.42 0
0.08 0.43 0
0.08 0.44 0
0.08 0.45 0
0.08 0.46 0
0.08 0.47 0
0.08 0.48 0
0.08 0.49 0
0.08 0.5 0
0.08 0.51 0
0.08 0.52 0
0.08 0.53 0
0.08 0.54 0
0.08 0.55 0
0.08 0.56 0
0.08 0.57 0
[...]
POINT_DATA 10000
SCALARS values float
LOOKUP_TABLE default
0
0
0
0
0
0
0
0
0
0
0
0
0
0
0
0
0
0
0
0
0
0
0
0
0
0
0
0
0
0
0
0
0
0
0
0
0
0
0
0
0
0
0
0
0
0
0
0
0
0
0
0
0
0
0
0
0
0
0
0
0
0
0
0
0
0
0
0
0
0
0
0
0
0
0
0
0
0
0
0
0
0
0
0
0
0
0
0
0
0
0
0
0
0
0
0
0
0
0
0
0
0.0034876596
0.0069612756
0.010406861
0.013810542
0.017158612
0.020437591
0.023634275
0.026735792
0.029729653
0.032603804
0.03534667
0.037947208
0.040394946
0.042680028
0.044793252
0.04672611
0.048470818
0.050020351
0.05136847
0.052509747
0.053439585
0.054154241
0.054650836
0.054927372
0.054982735
0.054816702
0.054429942
0.053824011
0.05300135
0.051965271
0.050719946
0.04927039
0.04762244
0.045782731
0.043758671
0.04155841
0.039190808
0.036665399
0.033992351
0.031182427
0.028246944
0.025197719
0.022047033
0.01880757
0.015492377
0.012114801
0.0086884426
0.0052270992
0.0017447082
-0.0017447082
-0.0052270992
-0.0086884426
-0.012114801
-0.015492377
-0.01880757
-0.022047033
-0.025197719
-0.028246944
-0.031182427
-0.033992351
-0.036665399
-0.039190808
-0.04155841
-0.043758671
-0.045782731
-0.04762244
-0.04927039
-0.050719946
-0.051965271
-0.05300135
-0.053824011
-0.054429942
-0.054816702
-0.054982735
-0.054927372
-0.054650836
-0.054154241
-0.053439585
-0.052509747
-0.05136847
-0.050020351
-0.048470818
-0.04672611
-0.044793252
-0.042680028
-0.040394946
-0.037947208
-0.03534667
-0.032603804
-0.029729653
-0.026735792
-0.023634275
-0.020437591
-0.017158612
-0.013810542
-0.010406861
-0.0069612756
-0.0034876596
0
0
0.0069612756
0.013894521
0.020771817
0.027565473
0.034248133
0.040792887
0.047173383
0.053363928
0.059339595
0.065076323
0.070551012
0.075741616
0.080627236
0.085188198
0.089406138
0.09326407
0.096746461
0.099839289
0.1025301
0.10480806
0.10666399
0.10809042
0.10908161
0.10963357
0.10974407
0.10941268
0.10864071
0.10743129
0.10578928
0.1037213
0.10123566
0.098342386
0.095053121
0.091381111
0.087341141
0.082949479
0.078223809
0.073183159
0.067847826
0.062239294
0.056380147
0.050293976
0.04400529
0.037539409
0.030922371
0.024180819
0.0173419
0.010433151
0.003482391
-0.003482391
-0.010433151
-0.0173419
-0.024180819
-0.030922371
-0.037539409
-0.04400529
-0.050293976
-0.056380147
-0.062239294
-0.067847826
-0.073183159
-0.078223809
-0.082949479
-0.087341141
-0.091381111
-0.095053121
-0.098342386
-0.10123566
-0.1037213
-0.10578928
-0.10743129
-0.10864071
-0.10941268
-0.10974407
-0.10963357
-0.10908161
-0.10809042
-0.10666399
-0.10480806
-0.1025301
-0.099839289
-0.096746461
-0.09326407
-0.089406138
-0.085188198
-0.080627236
-0.075741616
-0.070551012
-0.065076323
-0.059339595
-0.053363928
-0.047173383
-0.040792887
-0.034248133
-0.027565473
-0.020771817
-0.013894521
-0.0069612756
0
0
0.010406861
0.020771817
0.031053133
0.041209408
0.051199748
0.060983924
0.07052254
0.079777186
0.088710598
0.097286804
0.10547127
0.11323104
0.12053487
0.12735335
0.13365902
0.13942649
0.14463254
0.14925621
0.15327887
0.15668434
0.15945889
0.16159136
0.16307316
0.16389832
0.16406351
0.16356809
0.16241403
0.16060598
0.15815124
0.15505967
0.15134374
0.14701839
0.14210106
0.13661153
0.13057192
0.12400654
0.11694183
0.10940624
0.1014301
0.093045545
0.084286327
0.075187717
0.065786353
0.05612009
0.046227852
0.03614947
0.025925527
0.015597192
0.0052060515
-0.0052060515
-0.015597192
-0.025925527
-0.03614947
-0.046227852
-0.05612009
-0.065786353
-0.075187717
-0.084286327
-0.093045545
-0.1014301
-0.10940624
-0.11694183
-0.12400654
-0.13057192
-0.13661153
-0.14210106
-0.14701839
-0.15134374
-0.15505967
-0.15815124
-0.16060598
-0.16241403
-0.16356809
-0.16406351
-0.16389832
-0.16307316
-0.16159136
-0.15945889
-0.15668434
-0.15327887
-0.14925621
-0.14463254
-0.13942649
-0.13365902
-0.12735335
-0.12053487
-0.11323104
-0.10547127
-0.097286804
-0.088710598
-0.079777186
-0.07052254
-0.060983924
-0.051199748
-0.041209408
-0.031053133
-0.020771817
-0.010406861
0
0
0.013810542
0.027565473
0.041209408
0.054687408
0.0679452
0.080929401
0.093587728
0.10586921
0.11772439
0.12910554
0.13996683
0.15026452
0.15995715
0.16900569
0.1773737
0.18502749
0.19193624
0.19807213
0.20341045
0.20792971
0.21161171
0.21444163
0.21640806
0.2175031
0.21772233
0.21706486
0.21553336
0.21313397
0.20987637
0.20577368
0.2008424
0.19510241
0.1885768
0.18129187
0.17327693
0.16456427
0.15518897
0.14518877
0.13460396
0.12347713
0.11185312
0.099778704
0.087302518
0.074474796
0.06134719
0.04797256
0.034404762
0.020698428
0.0069087491
-0.0069087491
-0.020698428
-0.034404762
-0.04797256
-0.06134719
-0.074474796
-0.087302518
-0.099778704
-0.11185312
-0.12347713
-0.13460396
-0.14518877
-0.15518897
-0.16456427
-0.17327693
-0.18129187
-0.1885768
-0.19510241
-0.2008424
-0.20577368
-0.20987637
-0.21313397
-0.21553336
-0.21706486
-0.21772233
-0.2175031
-0.21640806
-0.21444163
-0.21161171
-0.20792971
-0.20341045
-0.19807213
-0.19193624
-0.18502749
-0.1773737
-0.16900569
-0.15995715
-0.15026452
-0.13996683
-0.12910554
-0.11772439
-0.10586921
-0.093587728
-0.080929401
-0.0679452
-0.054687408
-0.041209408
-0.027565473
-0.013810542
0
0
0.017158612
0.034248133
0.051199748
0.0679452
0.084417061
0.100549
0.11627607
0.13153494
0.14626416
0.16040442
0.1738988
0.18669294
0.19873534
0.2099775
0.22037416
0.22988344
0.23846707
0.24609048
0.25272296
0.25833782
0.26291245
0.26642841
0.26887157
0.27023207
0.27050445
0.2696876
0.26778481
0.26480375
0.26075641
0.25565911
0.24953235
0.24240081
0.23429321
0.2252422
0.21528422
0.20445936
0.19281121
0.18038669
0.16723581
0.15341153
0.13896951
0.12396792
0.10846715
0.092529617
0.076219504
0.059602481
0.042745461
0.025716319
0.0085836276
-0.0085836276
-0.025716319
-0.042745461
-0.059602481
-0.076219504
-0.092529617
-0.10846715
-0.12396792
-0.13896951
-0.15341153
-0.16723581
-0.18038669
-0.19281121
-0.20445936
-0.21528422
-0.2252422
-0.23429321
-0.24240081
-0.24953235
-0.25565911
-0.26075641
-0.26480375
-0.26778481
-0.2696876
-0.27050445
-0.27023207
-0.26887157
-0.26642841
-0.26291245
-0.25833782
-0.25272296
-0.24609048
-0.23846707
-0.22988344
-0.22037416
-0.2099775
-0.19873534
-0.18669294
-0.1738988
-0.16040442
-0.14626416
-0.13153494
-0.11627607
-0.100549
-0.084417061
-0.0679452
-0.051199748
-0.034248133
-0.017158612
0
0
0.020437591
0.040792887
0.060983924
0.080929401
0.100549
0.11976373
0.13849621
0.15667102
0.17421496
0.19105741
0.20713053
0.22236961
0.23671329
0.25010381
0.26248725
0.27381374
0.28403768
0.29311791
0.30101785
0.3077057
0.31315452
0.31734239
0.32025242
0.32187292
0.32219734
0.32122439
0.31895799
0.31540725
0.31058648
0.30451508
0.29721752
0.28872316
0.27906621
0.26828557
0.25642463
0.24353116
0.22965708
0.21485825
0.19919426
0.18272818
0.16552633
0.14765795
0.12919502
0.11021185
0.090784909
0.070992404
0.050914039
0.03063066
0.010223943
-0.010223943
-0.03063066
-0.050914039
-0.070992404
-0.090784909
-0.11021185
-0.12919502
-0.14765795
-0.16552633
-0.18272818
-0.19919426
-0.21485825
-0.22965708
-0.24353116
-0.25642463
-0.26828557
-0.27906621
-0.28872316
-0.29721752
-0.30451508
-0.31058648
-0.31540725
-0.31895799
-0.32122439
-0.32219734
-0.32187292
-0.32025242
-0.31734239
-0.31315452
-0.3077057
-0.30101785
-0.29311791
-0.28403768
-0.27381374
-0.26248725
-0.25010381
-0.23671329
-0.22236961
-0.20713053
-0.19105741
-0.17421496
-0.15667102
-0.13849621
-0.11976373
-0.100549
-0.080929401
-0.060983924
-0.040792887
-0.020437591
0
0
0.023634275
0.047173383
0.07052254
0.093587728
0.11627607
0.13849621
0.16015868
0.18117624
0.20146427
0.22094107
0.23952823
0.25715088
0.27373809
0.28922304
0.3035434
0.31664149
0.32846458
0.33896506
0.34810064
0.35583455
0.36213564
0.36697853
0.37034374
0.3722177
0.37259286
0.37146773
0.36884683
0.36474072
0.35916592
0.35214489
0.34370589
0.33388291
0.32271551
0.31024864
0.29653251
0.28162235
0.26557819
0.24846465
0.23035062
0.21130906
0.19141662
0.17075343
0.14940266
0.12745031
0.10498476
0.082096466
0.058877604
0.035421662
0.01182309
-0.01182309
-0.035421662
-0.058877604
-0.082096466
-0.10498476
-0.12745031
-0.14940266
-0.17075343
-0.19141662
-0.21130906
-0.23035062
-0.24846465
-0.26557819
-0.28162235
-0.29653251
-0.31024864
-0.32271551
-0.33388291
-0.34370589
-0.35214489
-0.35916592
-0.36474072
-0.36884683
-0.37146773
-0.37259286
-0.3722177
-0.37034374
-0.36697853
-0.36213564
-0.35583455
-0.34810064
-0.33896506
-0.32846458
-0.31664149
-0.3035434
-0.28922304
-0.27373809
-0.25715088
-0.23952823
-0.22094107
-0.20146427
-0.18117624
-0.16015868
-0.13849621
-0.11627607
-0.093587728
-0.07052254
-0.047173383
-0.023634275
0
0
0.026735792
0.053363928
0.079777186
0.10586921
0.13153494
0.15667102
0.18117624
0.20495193
0.22790235
0.24993509
0.27096143
0.2908967
0.30966063
0.32717767
0.34337728
0.35819423
0.37156886
0.38344731
0.39378176
0.40253059
0.40965856
0.41513699
0.41894381
0.42106368
0.42148809
0.4202153
0.41725046
0.4126055
0.40629913
0.39835673
0.38881029
0.37769824
0.36506534
0.35096245
0.33544636
0.31857954
0.30042992
0.28107057
0.26057945
0.23903906
0.21653616
0.19316133
0.16900872
0.14417556
0.11876186
0.092869954
0.06660409
0.040070033
0.013374629
-0.013374629
-0.040070033
-0.06660409
-0.092869954
-0.11876186
-0.14417556
-0.16900872
-0.19316133
-0.21653616
-0.23903906
-0.26057945
-0.28107057
-0.30042992
-0.31857954
-0.33544636
-0.35096245
-0.36506534
-0.37769824
-0.38881029
-0.39835673
-0.40629913
-0.4126055
-0.41725046
-0.4202153
-0.42148809
-0.42106368
-0.41894381
-0.41513699
-0.40965856
-0.40253059
-0.39378176
-0.38344731
-0.37156886
-0.35819423
-0.34337728
-0.32717767
-0.30966063
-0.2908967
-0.27096143
-0.24993509
-0.22790235
-0.20495193
-0.18117624
-0.15667102
-0.13153494
-0.10586921
-0.079777186
-0.053363928
-0.026735792
0
0
0.029729653
0.059339595
0.088710598
0.11772439
0.14626416
0.17421496
0.20146427
0.22790235
0.25342275
0.2779227
0.30130356
0.32347117
0.34433628
0.36381487
0.38182851
0.39830465
0.41317697
0.42638556
0.43787726
0.44760577
0.45553193
0.46162383
0.46585694
0.4682142
0.46868612
0.46727082
0.46397398
0.45880887
0.45179631
0.44296453
0.43234908
0.41999271
0.40594519
0.39026306
0.37300948
0.35425393
0.33407192
0.31254472
0.28975901
0.26580655
0.24078377
0.21479145
0.18793423
0.16032027
0.13206076
0.10326949
0.074062384
0.044557057
0.014872314
-0.014872314
-0.044557057
-0.074062384
-0.10326949
-0.13206076
-0.16032027
-0.18793423
-0.21479145
-0.24078377
-0.26580655
-0.28975901
-0.31254472
-0.33407192
-0.35425393
-0.37300948
-0.39026306
-0.40594519
-0.41999271
-0.43234908
-0.44296453
-0.45179631
-0.45880887
-0.46397398
-0.46727082
-0.46868612
-0.4682142
-0.46585694
-0.46162383
-0.45553193
-0.44760577
-0.43787726
-0.42638556
-0.41317697
-0.39830465
-0.38182851
-0.36381487
-0.34433628
-0.32347117
-0.30130356
-0.2779227
-0.25342275
-0.22790235
-0.20146427
-0.17421496
-0.14626416
-0.11772439
-0.088710598
-0.059339595
-0.029729653
0
0
0.032603804
0.065076323
0.097286804
0.12910554
0.16040442
0.19105741
0.22094107
0.24993509
0.2779227
0.30479122
0.33043245
0.35474314
0.37762541
0.39898712
0.41874224
0.43681124
0.45312136
0.46760691
0.48020957
0.49087861
0.49957104
0.50625188
0.51089422
0.51347938
0.51399693
0.51244479
0.50882923
0.50316478
0.49547427
0.48578866
0.47414695
0.46059602
0.44519043
0.42799222
0.40907063
0.38850186
0.36636873
0.34276036
0.31777182
0.29150372
0.26406184
0.23555667
0.20610301
0.17581943
0.1448279
0.11325319
0.081222456
0.048864665
0.016310113
-0.016310113
-0.048864665
-0.081222456
-0.11325319
-0.1448279
-0.17581943
-0.20610301
-0.23555667
-0.26406184
-0.29150372
-0.31777182
-0.34276036
-0.36636873
-0.38850186
-0.40907063
-0.42799222
-0.44519043
-0.46059602
-0.47414695
-0.48578866
-0.49547427
-0.50316478
-0.50882923
-0.51244479
-0.51399693
-0.51347938
-0.51089422
-0.50625188
-0.49957104
-0.49087861
-0.48020957
-0.46760691
-0.45312136
-0.43681124
-0.41874224
-0.39898712
-0.37762541
-0.35474314
-0.33043245
-0.30479122
-0.2779227
-0.24993509
-0.22094107
-0.19105741
-0.16040442
-0.12910554
-0.097286804
-0.065076323
-0.032603804
0
0
0.03534667
0.070551012
0.10547127
0.13996683
0.1738988
0.20713053
0.23952823
0.27096143
0.30130356
0.33043245
0.3582308
0.38458669
0.40939398
0.43255279
0.45396985
0.47355895
0.49124118
0.50694537
0.52060826
0.53217485
0.54159855
0.54884143
0.55387432
0.55667695
0.55723805
0.55555534
0.5516356
0.54549463
0.53715713
0.5266567
0.51403561
0.49934467
0.48264306
0.463998
0.4434846
0.42118543
0.3971903
0.37159583
0.34450507
0.31602711
0.28627662
0.2553734
0.22344187
0.19061063
0.15701186
0.12278087
0.088055473
0.052975512
0.017682237
-0.017682237
-0.052975512
-0.088055473
-0.12278087
-0.15701186
-0.19061063
-0.22344187
-0.2553734
-0.28627662
-0.31602711
-0.34450507
-0.37159583
-0.3971903
-0.42118543
-0.4434846
-0.463998
-0.48264306
-0.49934467
-0.51403561
-0.5266567
-0.53715713
-0.54549463
-0.5516356
-0.55555534
-0.55723805
-0.55667695
-0.55387432
-0.54884143
-0.54159855
-0.53217485
-0.52060826
-0.50694537
-0.49124118
-0.47355895
-0.45396985
-0.43255279
-0.40939398
-0.38458669
-0.3582308
-0.33043245
-0.30130356
-0.27096143
-0.23952823
-0.20713053
-0.1738988
-0.13996683
-0.10547127
-0.070551012
-0.03534667
0
0
0.037947208
0.075741616
0.11323104
0.15026452
0.18669294
0.22236961
0.25715088
0.2908967
0.32347117
0.35474314
0.38458669
0.41288164
0.43951406
0.46437671
0.48736949
0.5083998
0.52738296
0.54424253
0.55891064
0.5713282
0.58144524
0.58922099
0.59462416
0.59763299
0.59823536
0.59642885
0.59222074
0.58562795
0.57667705
0.56540408
0.55185442
0.53608264
0.51815224
0.49813543
0.4761128
0.45217304
0.42641253
0.39893501
0.36985112
0.33927797
0.30733867
0.27416182
0.23988102
0.2046343
0.1685636
0.13181414
0.094533922
0.056873045
0.018983161
-0.018983161
-0.056873045
-0.094533922
-0.13181414
-0.1685636
-0.2046343
-0.23988102
-0.27416182
-0.30733867
-0.33927797
-0.36985112
-0.39893501
-0.42641253
-0.45217304
-0.4761128
-0.49813543
-0.51815224
-0.53608264
-0.55185442
-0.56540408
-0.57667705
-0.58562795
-0.59222074
-0.59642885
-0.59823536
-0.59763299
-0.59462416
-0.58922099
-0.58144524
-0.5713282
-0.55891064
-0.54424253
-0.52738296
-0.5083998
-0.48736949
-0.46437671
-0.43951406
-0.41288164
-0.38458669
-0.35474314
-0.32347117
-0.2908967
-0.25715088
-0.22236961
-0.18669294
-0.15026452
-0.11323104
-0.075741616
-0.037947208
0
0
0.040394946
0.080627236
0.12053487
0.15995715
0.19873534
0.23671329
0.27373809
0.30966063
0.34433628
0.37762541
0.40939398
0.43951406
0.46786437
0.49433076
0.51880666
0.5411935
0.56140115
0.57934823
0.59496248
0.60818103
0.61895064
0.62722797
0.63297966
0.63618257
0.6368238
0.63490076
0.6304212
0.62340316
0.6138749
0.60187477
0.58745111
0.57066199
0.55157502
0.53026704
0.50682387
0.4813399
0.45391775
0.42466782
0.39370791
0.36116268
0.32716317
0.29184629
0.25535425
0.21783399
0.17943658
0.14031665
0.10063172
0.060541571
0.020207647
-0.020207647
-0.060541571
-0.10063172
-0.14031665
-0.17943658
-0.21783399
-0.25535425
-0.29184629
-0.32716317
-0.36116268
-0.39370791
-0.42466782
-0.45391775
-0.4813399
-0.50682387
-0.53026704
-0.55157502
-0.57066199
-0.58745111
-0.60187477
-0.6138749
-0.62340316
-0.6304212
-0.63490076
-0.6368238
-0.63618257
-0.63297966
-0.62722797
-0.61895064
-0.60818103
-0.59496248
-0.57934823
-0.56140115
-0.5411935
-0.51880666
-0.49433076
-0.46786437
-0.43951406
-0.40939398
-0.37762541
-0.34433628
-0.30966063
-0.27373809
-0.23671329
-0.19873534
-0.15995715
-0.12053487
-0.080627236
-0.040394946
0
0
0.042680028
0.085188198
0.12735335
0.16900569
0.2099775
0.25010381
0.28922304
0.32717767
0.36381487
0.39898712
0.43255279
0.46437671
0.49433076
0.52229432
0.54815477
0.57180801
0.59315877
0.61212109
0.62861862
0.64258492
0.65396376
0.66270932
0.66878638
0.67217047
0.67284797
0.67081615
0.66608319
0.65866815
0.64860088
0.63592193
0.62068234
0.60294349
0.58277679
0.56026346
0.53549414
0.50856858
0.4795952
0.44869065
0.41597938
0.38159311
0.3456703
0.3083556
0.26979926
0.23015653
0.18958704
0.14825416
0.1063243
0.063966317
0.021350763
-0.021350763
-0.063966317
-0.1063243
-0.14825416
-0.18958704
-0.23015653
-0.26979926
-0.3083556
-0.3456703
-0.38159311
-0.41597938
-0.44869065
-0.4795952
-0.50856858
-0.53549414
-0.56026346
-0.58277679
-0.60294349
-0.62068234
-0.63592193
-0.64860088
-0.65866815
-0.66608319
-0.67081615
-0.67284797
-0.67217047
-0.66878638
-0.66270932
-0.65396376
-0.64258492
-0.62861862
-0.61212109
-0.59315877
-0.57180801
-0.54815477
-0.52229432
-0.49433076
-0.46437671
-0.43255279
-0.39898712
-0.36381487
-0.32717767
-0.28922304
-0.25010381
-0.2099775
-0.16900569
-0.12735335
-0.085188198
-0.042680028
0
0
0.044793252
0.089406138
0.13365902
0.1773737
0.22037416
0.26248725
0.3035434
0.34337728
0.38182851
0.41874224
0.45396985
0.48736949
0.51880666
0.54815477
0.57529567
0.60012005
0.62252795
0.64242916
0.65974353
0.67440135
0.68634359
0.69552217
0.70190012
0.70545177
0.70616282
0.7040304
0.69906309
0.69128091
0.68071518
0.66740845
0.65141431
0.63279714
0.61163193
0.58800389
0.56200817
0.53374944
0.50334148
0.47090675
0.43657585
0.400487
0.36278554
0.32362327
0.28315788
0.24155231
0.1989741
0.15559469
0.11158876
0.067133494
0.022407908
-0.022407908
-0.067133494
-0.11158876
-0.15559469
-0.1989741
-0.24155231
-0.28315788
-0.32362327
-0.36278554
-0.400487
-0.43657585
-0.47090675
-0.50334148
-0.53374944
-0.56200817
-0.58800389
-0.61163193
-0.63279714
-0.65141431
-0.66740845
-0.68071518
-0.69128091
-0.69906309
-0.7040304
-0.70616282
-0.70545177
-0.70190012
-0.69552217
-0.68634359
-0.67440135
-0.65974353
-0.64242916
-0.62252795
-0.60012005
-0.57529567
-0.54815477
-0.51880666
-0.48736949
-0.45396985
-0.41874224
-0.38182851
-0.34337728
-0.3035434
-0.26248725
-0.22037416
-0.1773737
-0.13365902
-0.089406138
-0.044793252
0
0
0.04672611
0.09326407
0.13942649
0.18502749
0.22988344
0.27381374
0.31664149
0.35819423
0.39830465
0.43681124
0.47355895
0.5083998
0.5411935
0.57180801
0.60012005
0.62601561
0.64939044
0.67015039
0.68821189
0.7035022
0.71595976
0.7255344
0.73218757
0.73589247
0.7366342
0.73440976
0.72922812
0.72111013
0.71008848
0.69620756
0.67952325
0.66010275
0.63802424
0.61337664
0.58625918
0.55678107
0.52506099
0.49122668
0.45541438
0.41776828
0.37843997
0.33758782
0.29537632
0.25197545
0.20755996
0.1623087
0.11640388
0.070030348
0.023374823
-0.023374823
-0.070030348
-0.11640388
-0.1623087
-0.20755996
-0.25197545
-0.29537632
-0.33758782
-0.37843997
-0.41776828
-0.45541438
-0.49122668
-0.52506099
-0.55678107
-0.58625918
-0.61337664
-0.63802424
-0.66010275
-0.67952325
-0.69620756
-0.71008848
-0.72111013
-0.72922812
-0.73440976
-0.7366342
-0.73589247
-0.73218757
-0.7255344
-0.71595976
-0.7035022
-0.68821189
-0.67015039
-0.64939044
-0.62601561
-0.60012005
-0.57180801
-0.5411935
-0.5083998
-0.47355895
-0.43681124
-0.39830465
-0.35819423
-0.31664149
-0.27381374
-0.22988344
-0.18502749
-0.13942649
-0.09326407
-0.04672611
0
0
0.048470818
0.096746461
0.14463254
0.19193624
0.23846707
0.28403768
0.32846458
0.37156886
0.41317697
0.45312136
0.49124118
0.52738296
0.56140115
0.59315877
0.62252795
0.64939044
0.67363805
0.69517317
0.71390906
0.7297703
0.74269301
0.75262516
0.75952675
0.76336999
0.76413942
0.76183192
0.7564568
0.74803569
0.7366025
0.72220328
0.704896
0.68475035
0.66184746
0.63627953
0.60814954
0.57757074
0.54466627
0.50956862
0.47241911
0.43336734
0.39257056
0.35019303
0.30640539
0.26138397
0.21531005
0.16836916
0.12075029
0.072645214
0.024247617
-0.024247617
-0.072645214
-0.12075029
-0.16836916
-0.21531005
-0.26138397
-0.30640539
-0.35019303
-0.39257056
-0.43336734
-0.47241911
-0.50956862
-0.54466627
-0.57757074
-0.60814954
-0.63627953
-0.66184746
-0.68475035
-0.704896
-0.72220328
-0.7366025
-0.74803569
-0.7564568
-0.76183192
-0.76413942
-0.76336999
-0.75952675
-0.75262516
-0.74269301
-0.7297703
-0.71390906
-0.69517317
-0.67363805
-0.64939044
-0.62252795
-0.59315877
-0.56140115
-0.52738296
-0.49124118
-0.45312136
-0.41317697
-0.37156886
-0.32846458
-0.28403768
-0.23846707
-0.19193624
-0.14463254
-0.096746461
-0.048470818
0
0
0.050020351
0.099839289
0.14925621
0.19807213
0.24609048
0.29311791
0.33896506
0.38344731
0.42638556
0.46760691
0.50694537
0.54424253
0.57934823
0.61212109
0.64242916
0.67015039
0.69517317
0.71739672
0.73673158
0.75309987
0.7664357
0.77668536
0.78380758
0.78777369
0.78856771
0.78618645