# vtk DataFile Version 3.0
vtk output
ASCII
DATASET STRUCTURED_GRID
DIMENSIONS 100 100 1
POINTS 10000 float
0 0 0
0 0.01 0
0 0.02 0
0 0.03 0
0 0.04 0
0 0.05 0
0 0.06 0
0 0.07 0
0 0.08 0
0 0.09 0
0 0.1 0
0 0.11 0
0 0.12 0
0 0.13 0
0 0.14 0
0 0.15 0
0 0.16 0
0 0.17 0
0 0.18 0
0 0.19 0
0 0.2 0
0 0.21 0
0 0.22 0
0 0.23 0
0 0.24 0
0 0.25 0
0 0.26 0
0 0.27 0
0 0.28 0
0 0.29 0
0 0.3 0
0 0.31 0
0 0.32 0
0 0.33 0
0 0.34 0
0 0.35 0
0 0.36 0
0 0.37 0
0 0.38 0
0 0.39 0
0 0.4 0
0 0.41 0
0 0.42 0
0 0.43 0
0 0.44 0
0 0.45 0
0 0.46 0
0 0.47 0
0 0.48 0
0 0.49 0
0 0.5 0
0 0.51 0
0 0.52 0
0 0.53 0
0 0.54 0
0 0.55 0
0 0.56 0
0 0.57 0
0 0.58 0
0 0.59 0
0 0.6 0
0 0.61 0
0 0.62 0
0 0.63 0
0 0.64 0
0 0.65 0
0 0.66 0
0 0.67 0
0 0.68 0
0 0.69 0
0 0.7 0
0 0.71 0
0 0.72 0
0 0.73 0
0 0.74 0
0 0.75 0
0 0.76 0
0 0.77 0
0 0.78 0
0 0.79 0
0 0.8 0
0 0.81 0
0 0.82 0
0 0.83 0
0 0.84 0
0 0.85 0
0 0.86 0
0 0.87 0
0 0.88 0
0 0.89 0
0 0.9 0
0 0.91 0
0 0.92 0
0 0.93 0
0 0.94 0
0 0.95 0
0 0.96 0
0 0.97 0
0 0.98 0
0 0.99 0
0.01 0 0
0.01 0.01 0
0.01 0.02 0
0.01 0.03 0
0.01 0.04 0
0.01 0.05 0
0.01 0.06 0
0.01 0.07 0
0.01 0.08 0
0.01 0.09 0
0.01 0.1 0
0.01 0.11 0
0.01 0.12 0
0.01 0.13 0
0.01 0.14 0
0.01 0.15 0
0.01 0.16 0
0.01 0.17 0
0.01 0.18 0
0.01 0.19 0
0.01 0.2 0
0.01 0.21 0
0.01 0.22 0
0.01 0.23 0
0.01 0.24 0
0.01 0.25 0
0.01 0.26 0
0.01 0.27 0
0.01 0.28 0
0.01 0.29 0
0.01 0.3 0
0.01 0.31 0
0.01 0.32 0
0.01 0.33 0
0.01 0.34 0
0.01 0.35 0
0.01 0.36 0
0.01 0.37 0
0.01 0.38 0
0.01 0.39 0
0.01 0.4 0
0.01 0.41 0
0.01 0.42 0
0.01 0.43 0
0.01 0.44 0
0.01 0.45 0
0.01 0.46 0
0.01 0.47 0
0.01 0.48 0
0.01 0.49 0
0.01 0.5 0
0.01 0.51 0
0.01 0.52 0
0.01 0.53 0
0.01 0.54 0
0.01 0.55 0
0.01 0.56 0
0.01 0.57 0
0.01 0.58 0
0.01 0.59 0
0.01 0.6 0
0.01 0.61 0
0.01 0.62 0
0.01 0.63 0
0.01 0.64 0
0.01 0.65 0
0.01 0.66 0
0.01 0.67 0
0.01 0.68 0
0.01 0.69 0
0.01 0.7 0
0.01 0.71 0
0.01 0.72 0
0.01 0.73 0
0.01 0.74 0
0.01 0.75 0
0.01 0.76 0
0.01 0.77 0
0.01 0.78 0
0.01 0.79 0
0.01 0.8 0
0.01 0.81 0
0.01 0.82 0
0.01 0.83 0
0.01 0.84 0
0.01 0.85 0
0.01 0.86 0
0.01 0.87 0
0.01 0.88 0
0.01 0.89 0
0.01 0.9 0
0.01 0.91 0
0.01 0.92 0
0.01 0.93 0
0.01 0.94 0
0.01 0.95 0
0.01 0.96 0
0.01 0.97 0
0.01 0.98 0
0.01 0.99 0
0.02 0 0
0.02 0.01 0
0.02 0.02 0
0.02 0.03 0
0.02 0.04 0
0.02 0.05 0
0.02 0.06 0
0.02 0.07 0
0.02 0.08 0
0.02 0.09 0
0.02 0.1 0
0.02 0.11 0
0.02 0.12 0
0.02 0.13 0
0.02 0.14 0
0.02 0.15 0
0.02 0.16 0
0.02 0.17 0
0.02 0.18 0
0.02 0.19 0
0.02 0.2 0
0.02 0.21 0
0.02 0.22 0
0.02 0.23 0
0.02 0.24 0
0.02 0.25 0
0.02 0.26 0
0.02 0.27 0
0.02 0.28 0
0.02 0.29 0
0.02 0.3 0
0.02 0.31 0
0.02 0.32 0
0.02 0.33 0
0.02 0.34 0
0.02 0.35 0
0.02 0.36 0
0.02 0.37 0
0.02 0.38 0
0.02 0.39 0
0.02 0.4 0
0.02 0.41 0
0.02 0.42 0
0.02 0.43 0
0.02 0.44 0
0.02 0.45 0
0.02 0.46 0
0.02 0.47 0
0.02 0.48 0
0.02 0.49 0
0.02 0.5 0
0.02 0.51 0
0.02 0.52 0
0.02 0.53 0
0.02 0.54 0
0.02 0.55 0
0.02 0.56 0
0.02 0.57 0
0.02 0.58 0
0.02 0.59 0
0.02 0.6 0
0.02 0.61 0
0.02 0.62 0
0.02 0.63 0
0.02 0.64 0
0.02 0.65 0
0.02 0.66 0
0.02 0.67 0
0.02 0.68 0
0.02 0.69 0
0.02 0.7 0
0.02 0.71 0
0.02 0.72 0
0.02 0.73 0
0.02 0.74 0
0.02 0.75 0
0.02 0.76 0
0.02 0.77 0
0.02 0.78 0
0.02 0.79 0
0.02 0.8 0
0.02 0.81 0
0.02 0.82 0
0.02 0.83 0
0.02 0.84 0
0.02 0.85 0
0.02 0.86 0
0.02 0.87 0
0.02 0.88 0
0.02 0.89 0
0.02 0.9 0
0.02 0.91 0
0.02 0.92 0
0.02 0.93 0
0.02 0.94 0
0.02 0.95 0
0.02 0.96 0
0.02 0.97 0
0.02 0.98 0
0.02 0.99 0
0.03 0 0
0.03 0.01 0
0.03 0.02 0
0.03 0.03 0
0.03 0.04 0
0.03 0.05 0
0.03 0.06 0
0.03 0.07 0
0.03 0.08 0
0.03 0.09 0
0.03 0.1 0
0.03 0.11 0
0.03 0.12 0
0.03 0.13 0
0.03 0.14 0
0.03 0.15 0
0.03 0.16 0
0.03 0.17 0
0.03 0.18 0
0.03 0.19 0
0.03 0.2 0
0.03 0.21 0
0.03 0.22 0
0.03 0.23 0
0.03 0.24 0
0.03 0.25 0
0.03 0.26 0
0.03 0.27 0
0.03 0.28 0
0.03 0.29 0
0.03 0.3 0
0.03 0.31 0
0.03 0.32 0
0.03 0.33 0
0.03 0.34 0
0.03 0.35 0
0.03 0.36 0
0.03 0.37 0
0.03 0.38 0
0.03 0.39 0
0.03 0.4 0
0.03 0.41 0
0.03 0.42 0
0.03 0.43 0
0.03 0.44 0
0.03 0.45 0
0.03 0.46 0
0.03 0.47 0
0.03 0.48 0
0.03 0.49 0
0.03 0.5 0
0.03 0.51 0
0.03 0.52 0
0.03 0.53 0
0.03 0.54 0
0.03 0.55 0
0.03 0.56 0
0.03 0.57 0
0.03 0.58 0
0.03 0.59 0
0.03 0.6 0
0.03 0.61 0
0.03 0.62 0
0.03 0.63 0
0.03 0.64 0
0.03 0.65 0
0.03 0.66 0
0.03 0.67 0
0.03 0.68 0
0.03 0.69 0
0.03 0.7 0
0.03 0.71 0
0.03 0.72 0
0.03 0.73 0
0.03 0.74 0
0.03 0.75 0
0.03 0.76 0
0.03 0.77 0
0.03 0.78 0
0.03 0.79 0
0.03 0.8 0
0.03 0.81 0
0.03 0.82 0
0.03 0.83 0
0.03 0.84 0
0.03 0.85 0
0.03 0.86 0
0.03 0.87 0
0.03 0.88 0
0.03 0.89 0
0.03 0.9 0
0.03 0.91 0
0.03 0.92 0
0.03 0.93 0
0.03 0.94 0
0.03 0.95 0
0.03 0.96 0
0.03 0.97 0
0.03 0.98 0
0.03 0.99 0
0.04 0 0
0.04 0.01 0
0.04 0.02 0
0.04 0.03 0
0.04 0.04 0
0.04 0.05 0
0.04 0.06 0
0.04 0.07 0
0.04 0.08 0
0.04 0.09 0
0.04 0.1 0
0.04 0.11 0
0.04 0.12 0
0.04 0.13 0
0.04 0.14 0
0.04 0.15 0
0.04 0.16 0
0.04 0.17 0
0.04 0.18 0
0.04 0.19 0
0.04 0.2 0
0.04 0.21 0
0.04 0.22 0
0.04 0.23 0
0.04 0.24 0
0.04 0.25 0
0.04 0.26 0
0.04 0.27 0
0.04 0.28 0
0.04 0.29 0
0.04 0.3 0
0.04 0.31 0
0.04 0.32 0
0.04 0.33 0
0.04 0.34 0
0.04 0.35 0
0.04 0.36 0
0.04 0.37 0
0.04 0.38 0
0.04 0.39 0
0.04 0.4 0
0.04 0.41 0
0.04 0.42 0
0.04 0.43 0
0.04 0.44 0
0.04 0.45 0
0.04 0.46 0
0.04 0.47 0
0.04 0.48 0
0.04 0.49 0
0.04 0.5 0
0.04 0.51 0
0.04 0.52 0
0.04 0.53 0
0.04 0.54 0
0.04 0.55 0
0.04 0.56 0
0.04 0.57 0
0.04 0.58 0
0.04 0.59 0
0.04 0.6 0
0.04 0.61 0
0.04 0.62 0
0.04 0.63 0
0.04 0.64 0
0.04 0.65 0
0.04 0.66 0
0.04 0.67 0
0.04 0.68 0
0.04 0.69 0
0.04 0.7 0
0.04 0.71 0
0.04 0.72 0
0.04 0.73 0
0.04 0.74 0
0.04 0.75 0
0.04 0.76 0
0.04 0.77 0
0.04 0.78 0
0.04 0.79 0
0.04 0.8 0
0.04 0.81 0
0.04 0.82 0
0.04 0.83 0
0.04 0.84 0
0.04 0.85 0
0.04 0.86 0
0.04 0.87 0
0.04 0.88 0
0.04 0.89 0
0.04 0.9 0
0.04 0.91 0
0.04 0.92 0
0.04 0.93 0
0.04 0.94 0
0.04 0.95 0
0.04 0.96 0
0.04 0.97 0
0.04 0.98 0
0.04 0.99 0
0.05 0 0
0.05 0.01 0
0.05 0.02 0
0.05 0.03 0
0.05 0.04 0
0.05 0.05 0
0.05 0.06 0
0.05 0.07 0
0.05 0.08 0
0.05 0.09 0
0.05 0.1 0
0.05 0.11 0
0.05 0.12 0
0.05 0.13 0
0.05 0.14 0
0.05 0.15 0
0.05 0.16 0
0.05 0.17 0
0.05 0.18 0
0.05 0.19 0
0.05 0.2 0
0.05 0.21 0
0.05 0.22 0
0.05 0.23 0
0.05 0.24 0
0.05 0.25 0
0.05 0.26 0
0.05 0.27 0
0.05 0.28 0
0.05 0.29 0
0.05 0.3 0
0.05 0.31 0
0.05 0.32 0
0.05 0.33 0
0.05 0.34 0
0.05 0.35 0
0.05 0.36 0
0.05 0.37 0
0.05 0.38 0
0.05 0.39 0
0.05 0.4 0
0.05 0.41 0
0.05 0.42 0
0.05 0.43 0
0.05 0.44 0
0.05 0.45 0
0.05 0.46 0
0.05 0.47 0
0.05 0.48 0
0.05 0.49 0
0.05 0.5 0
0.05 0.51 0
0.05 0.52 0
0.05 0.53 0
0.05 0.54 0
0.05 0.55 0
0.05 0.56 0
0.05 0.57 0
0.05 0.58 0
0.05 0.59 0
0.05 0.6 0
0.05 0.61 0
0.05 0.62 0
0.05 0.63 0
0.05 0.64 0
0.05 0.65 0
0.05 0.66 0
0.05 0.67 0
0.05 0.68 0
0.05 0.69 0
0.05 0.7 0
0.05 0.71 0
0.05 0.72 0
0.05 0.73 0
0.05 0.74 0
0.05 0.75 0
0.05 0.76 0
0.05 0.77 0
0.05 0.78 0
0.05 0.79 0
0.05 0.8 0
0.05 0.81 0
0.05 0.82 0
0.05 0.83 0
0.05 0.84 0
0.05 0.85 0
0.05 0.86 0
0.05 0.87 0
0.05 0.88 0
0.05 0.89 0
0.05 0.9 0
0.05 0.91 0
0.05 0.92 0
0.05 0.93 0
0.05 0.94 0
0.05 0.95 0
0.05 0.96 0
0.05 0.97 0
0.05 0.98 0
0.05 0.99 0
0.06 0 0
0.06 0.01 0
0.06 0.02 0
0.06 0.03 0
0.06 0.04 0
0.06 0.05 0
0.06 0.06 0
0.06 0.07 0
0.06 0.08 0
0.06 0.09 0
0.06 0.1 0
0.06 0.11 0
0.06 0.12 0
0.06 0.13 0
0.06 0.14 0
0.06 0.15 0
0.06 0.16 0
0.06 0.17 0
0.06 0.18 0
0.06 0.19 0
0.06 0.2 0
0.06 0.21 0
0.06 0.22 0
0.06 0.23 0
0.06 0.24 0
0.06 0.25 0
0.06 0.26 0
0.06 0.27 0
0.06 0.28 0
0.06 0.29 0
0.06 0.3 0
0.06 0.31 0
0.06 0.32 0
0.06 0.33 0
0.06 0.34 0
0.06 0.35 0
0.06 0.36 0
0.06 0.37 0
0.06 0.38 0
0.06 0.39 0
0.06 0.4 0
0.06 0.41 0
0.06 0.42 0
0.06 0.43 0
0.06 0.44 0
0.06 0.45 0
0.06 0.46 0
0.06 0.47 0
0.06 0.48 0
0.06 0.49 0
0.06 0.5 0
0.06 0.51 0
0.06 0.52 0
0.06 0.53 0
0.06 0.54 0
0.06 0.55 0
0.06 0.56 0
0.06 0.57 0
0.06 0.58 0
0.06 0.59 0
0.06 0.6 0
0.06 0.61 0
0.06 0.62 0
0.06 0.63 0
0.06 0.64 0
0.06 0.65 0
0.06 0.66 0
0.06 0.67 0
0.06 0.68 0
0.06 0.69 0
0.06 0.7 0
0.06 0.71 0
0.06 0.72 0
0.06 0.73 0
0.06 0.74 0
0.06 0.75 0
0.06 0.76 0
0.06 0.77 0
0.06 0.78 0
0.06 0.79 0
0.06 0.8 0
0.06 0.81 0
0.06 0.82 0
0.06 0.83 0
0.06 0.84 0
0.06 0.85 0
0.06 0.86 0
0.06 0.87 0
0.06 0.88 0
0.06 0.89 0
0.06 0.9 0
0.06 0.91 0
0.06 0.92 0
0.06 0.93 0
0.06 0.94 0
0.06 0.95 0
0.06 0.96 0
0.06 0.97 0
0.06 0.98 0
0.06 0.99 0
0.07 0 0
0.07 0.01 0
0.07 0.02 0
0.07 0.03 0
0.07 0.04 0
0.07 0.05 0
0.07 0.06 0
0.07 0.07 0
0.07 0.08 0
0.07 0.09 0
0.07 0.1 0
0.07 0.11 0
0.07 0.12 0
0.07 0.13 0
0.07 0.14 0
0.07 0.15 0
0.07 0.16 0
0.07 0.17 0
0.07 0.18 0
0.07 0.19 0
0.07 0.2 0
0.07 0.21 0
0.07 0.22 0
0.07 0.23 0
0.07 0.24 0
0.07 0.25 0
0.07 0.26 0
0.07 0.27 0
0.07 0.28 0
0.07 0.29 0
0.07 0.3 0
0.07 0.31 0
0.07 0.32 0
0.07 0.33 0
0.07 0.34 0
0.07 0.35 0
0.07 0.36 0
0.07 0.37 0
0.07 0.38 0
0.07 0.39 0
0.07 0.4 0
0.07 0.41 0
0.07 0.42 0
0.07 0.43 0
0.07 0.44 0
0.07 0.45 0
0.07 0.46 0
0.07 0.47 0
0.07 0.48 0
0.07 0.49 0
0.07 0.5 0
0.07 0.51 0
0.07 0.52 0
0.07 0.53 0
0.07 0.54 0
0.07 0.55 0
0.07 0.56 0
0.07 0.57 0
0.07 0.58 0
0.07 0.59 0
0.07 0.6 0
0.07 0.61 0
0.07 0.62 0
0.07 0.63 0
0.07 0.64 0
0.07 0.65 0
0.07 0.66 0
0.07 0.67 0
0.07 0.68 0
0.07 0.69 0
0.07 0.7 0
0.07 0.71 0
0.07 0.72 0
0.07 0.73 0
0.07 0.74 0
0.07 0.75 0
0.07 0.76 0
0.07 0.77 0
0.07 0.78 0
0.07 0.79 0
0.07 0.8 0
0.07 0.81 0
0.07 0.82 0
0.07 0.83 0
0.07 0.84 0
0.07 0.85 0
0.07 0.86 0
0.07 0.87 0
0.07 0.88 0
0.07 0.89 0
0.07 0.9 0
0.07 0.91 0
0.07 0.92 0
0.07 0.93 0
0.07 0.94 0
0.07 0.95 0
0.07 0.96 0
0.07 0.97 0
0.07 0.98 0
0.07 0.99 0
0.08 0 0
0.08 0.01 0
0.08 0.02 0
0.08 0.03 0
0.08 0.04 0
0.08 0.05 0
0.08 0.06 0
0.08 0.07 0
0.08 0.08 0
0.08 0.09 0
0.08 0.1 0
0.08 0.11 0
0.08 0.12 0
0.08 0.13 0
0.08 0.14 0
0.08 0.15 0
0.08 0.16 0
0.08 0.17 0
0.08 0.18 0
0.08 0.19 0
0.08 0.2 0
0.08 0.21 0
0.08 0.22 0
0.08 0.23 0
0.08 0.24 0
0.08 0.25 0
0.08 0.26 0
0.08 0.27 0
0.08 0.28 0
0.08 0.29 0
0.08 0.3 0
0.08 0.31 0
0.08 0.32 0
0.08 0.33 0
0.08 0.34 0
0.08 0.35 0
0.08 0.36 0
0.08 0.37 0
0.08 0.38 0
0.08 0.39 0
0.08 0.4 0
0.08 0.41 0
0.08 0.42 0
0.08 0.43 0
0.08 0.44 0
0.08 0.45 0
0.08 0.46 0
0.08 0.47 0
0.08 0.48 0
0.08 0.49 0
0.08 0.5 0
0.08 0.51 0
0.08 0.52 0
0.08 0.53 0
0.08 0.54 0
0.08 0.55 0
0.08 0.56 0
0.08 0.57 0
[...]
POINT_DATA 10000
SCALARS values float
LOOKUP_TABLE default
0
0
0
0
0
0
0
0
0
0
0
0
0
0
0
0
0
0
0
0
0
0
0
0
0
0
0
0
0
0
0
0
0
0
0
0
0
0
0
0
0
0
0
0
0
0
0
0
0
0
0
0
0
0
0
0
0
0
0
0
0
0
0
0
0
0
0
0
0
0
0
0
0
0
0
0
0
0
0
0
0
0
0
0
0
0
0
0
0
0
0
0
0
0
0
0
0
0
0
0
0
0.0040239441
0.0080316851
0.012007085
0.015934137
0.019797028
0.023580204
0.02726843
0.030846855
0.034301072
0.03761717
0.040781797
0.04378221
0.046606327
0.049242777
0.051680944
0.053911011
0.055923996
0.057711795
0.05926721
0.060583976
0.061656792
0.062481337
0.063054293
0.063373351
0.063437227
0.063245663
0.062799432
0.062100329
0.061151171
0.059955778
0.058518964
0.056846516
0.054945166
0.052822571
0.050487279
0.047948692
0.045217033
0.042303301
0.039219228
0.035977234
0.032590371
0.029072279
0.025437123
0.021699541
0.017874582
0.013977649
0.010024432
0.0060308509
0.0020129855
-0.0020129855
-0.0060308509
-0.010024432
-0.013977649
-0.017874582
-0.021699541
-0.025437123
-0.029072279
-0.032590371
-0.035977234
-0.039219228
-0.042303301
-0.045217033
-0.047948692
-0.050487279
-0.052822571
-0.054945166
-0.056846516
-0.058518964
-0.059955778
-0.061151171
-0.062100329
-0.062799432
-0.063245663
-0.063437227
-0.063373351
-0.063054293
-0.062481337
-0.061656792
-0.060583976
-0.05926721
-0.057711795
-0.055923996
-0.053911011
-0.051680944
-0.049242777
-0.046606327
-0.04378221
-0.040781797
-0.03761717
-0.034301072
-0.030846855
-0.02726843
-0.023580204
-0.019797028
-0.015934137
-0.012007085
-0.0080316851
-0.0040239441
0
0
0.0080316851
0.01603103
0.023965823
0.031804114
0.039514341
0.047065458
0.054427059
0.061569501
0.068464025
0.075082868
0.081399379
0.087388124
0.093024987
0.098287272
0.10315379
0.10760494
0.11162281
0.11519121
0.11829577
0.120924
0.12306531
0.12471108
0.12585469
0.12649152
0.12661901
0.12623666
0.12534599
0.1239506
0.12205611
0.11967013
0.11680229
0.11346413
0.10966909
0.10543245
0.10077126
0.095704312
0.090251993
0.084436262
0.078280535
0.0718096
0.065049513
0.058027494
0.05077182
0.043311705
0.035677189
0.027899014
0.020008499
0.012037418
0.0040178654
-0.0040178654
-0.012037418
-0.020008499
-0.027899014
-0.035677189
-0.043311705
-0.05077182
-0.058027494
-0.065049513
-0.0718096
-0.078280535
-0.084436262
-0.090251993
-0.095704312
-0.10077126
-0.10543245
-0.10966909
-0.11346413
-0.11680229
-0.11967013
-0.12205611
-0.1239506
-0.12534599
-0.12623666
-0.12661901
-0.12649152
-0.12585469
-0.12471108
-0.12306531
-0.120924
-0.11829577
-0.11519121
-0.11162281
-0.10760494
-0.10315379
-0.098287272
-0.093024987
-0.087388124
-0.081399379
-0.075082868
-0.068464025
-0.061569501
-0.054427059
-0.047065458
-0.039514341
-0.031804114
-0.023965823
-0.01603103
-0.0080316851
0
0
0.012007085
0.023965823
0.035828058
0.047546026
0.059072543
0.070361196
0.081366529
0.092044228
0.1023513
0.11224623
0.1216892
0.13064216
0.13906907
0.146936
0.15421127
0.16086558
0.16687215
0.17220678
0.176848
0.18077711
0.18397829
0.18643866
0.18814831
0.18910035
0.18929095
0.18871934
0.18738783
0.18530177
0.18246957
0.17890262
0.1746153
0.16962486
0.16395141
0.15761778
0.15064948
0.14307456
0.13492354
0.12622923
0.11702663
0.10735281
0.097246723
0.086749053
0.075902076
0.064749468
0.053336137
0.04170804
0.029912
0.017995514
0.0060065668
-0.0060065668
-0.017995514
-0.029912
-0.04170804
-0.053336137
-0.064749468
-0.075902076
-0.086749053
-0.097246723
-0.10735281
-0.11702663
-0.12622923
-0.13492354
-0.14307456
-0.15064948
-0.15761778
-0.16395141
-0.16962486
-0.1746153
-0.17890262
-0.18246957
-0.18530177
-0.18738783
-0.18871934
-0.18929095
-0.18910035
-0.18814831
-0.18643866
-0.18397829
-0.18077711
-0.176848
-0.17220678
-0.16687215
-0.16086558
-0.15421127
-0.146936
-0.13906907
-0.13064216
-0.1216892
-0.11224623
-0.1023513
-0.092044228
-0.081366529
-0.070361196
-0.059072543
-0.047546026
-0.035828058
-0.023965823
-0.012007085
0
0
0.015934137
0.031804114
0.047546026
0.063096487
0.078392881
0.093373615
0.10797837
0.12214833
0.13582644
0.14895762
0.16148901
0.17337014
0.18455317
0.19499306
0.20464779
0.21347848
0.22144956
0.22852894
0.23468812
0.23990229
0.24415046
0.24741552
0.24968433
0.25094774
0.25120068
0.25044212
0.24867512
0.24590679
0.24214829
0.23741473
0.23172519
0.22510258
0.21757356
0.20916844
0.19992108
0.18986871
0.1790518
0.16751391
0.15530151
0.14246376
0.12905235
0.1151213
0.1007267
0.085926509
0.070780319
0.055349123
0.039695055
0.023881149
0.0079710818
-0.0079710818
-0.023881149
-0.039695055
-0.055349123
-0.070780319
-0.085926509
-0.1007267
-0.1151213
-0.12905235
-0.14246376
-0.15530151
-0.16751391
-0.1790518
-0.18986871
-0.19992108
-0.20916844
-0.21757356
-0.22510258
-0.23172519
-0.23741473
-0.24214829
-0.24590679
-0.24867512
-0.25044212
-0.25120068
-0.25094774
-0.24968433
-0.24741552
-0.24415046
-0.23990229
-0.23468812
-0.22852894
-0.22144956
-0.21347848
-0.20464779
-0.19499306
-0.18455317
-0.17337014
-0.16148901
-0.14895762
-0.13582644
-0.12214833
-0.10797837
-0.093373615
-0.078392881
-0.063096487
-0.047546026
-0.031804114
-0.015934137
0
0
0.019797028
0.039514341
0.059072543
0.078392881
0.097397559
0.11601005
0.13415541
0.15176058
0.16875465
0.18506922
0.20063857
0.21540002
0.22929414
0.24226496
0.25426027
0.26523177
0.27513527
0.2839309
0.29158323
0.29806147
0.30333952
0.30739612
0.31021495
0.31178466
0.31209891
0.31115646
0.30896109
0.30552164
0.30085196
0.29497086
0.28790201
0.27967389
0.27031961
0.25987686
0.24838767
0.23589831
0.22245908
0.20812408
0.19295104
0.17700105
0.16033834
0.14303
0.12514574
0.10675755
0.087939494
0.068767334
0.049318272
0.029670623
0.0099035001
-0.0099035001
-0.029670623
-0.049318272
-0.068767334
-0.087939494
-0.10675755
-0.12514574
-0.14303
-0.16033834
-0.17700105
-0.19295104
-0.20812408
-0.22245908
-0.23589831
-0.24838767
-0.25987686
-0.27031961
-0.27967389
-0.28790201
-0.29497086
-0.30085196
-0.30552164
-0.30896109
-0.31115646
-0.31209891
-0.31178466
-0.31021495
-0.30739612
-0.30333952
-0.29806147
-0.29158323
-0.2839309
-0.27513527
-0.26523177
-0.25426027
-0.24226496
-0.22929414
-0.21540002
-0.20063857
-0.18506922
-0.16875465
-0.15176058
-0.13415541
-0.11601005
-0.097397559
-0.078392881
-0.059072543
-0.039514341
-0.019797028
0
0
0.023580204
0.047065458
0.070361196
0.093373615
0.11601005
0.13817936
0.15979226
0.18076174
0.20100335
0.2204356
0.23898023
0.25656257
0.27311182
0.28856135
0.30284894
0.31591707
0.32771311
0.33818956
0.34730425
0.35502046
0.36130713
0.36613895
0.36949645
0.37136612
0.37174043
0.37061788
0.36800297
0.36390625
0.35834421
0.35133924
0.34291955
0.33311905
0.32197719
0.30953884
0.29585409
0.28097804
0.26497059
0.2478962
0.22982362
0.21082562
0.1909787
0.17036277
0.14906085
0.12715872
0.10474457
0.081908643
0.058742902
0.035340623
0.011796041
-0.011796041
-0.035340623
-0.058742902
-0.081908643
-0.10474457
-0.12715872
-0.14906085
-0.17036277
-0.1909787
-0.21082562
-0.22982362
-0.2478962
-0.26497059
-0.28097804
-0.29585409
-0.30953884
-0.32197719
-0.33311905
-0.34291955
-0.35133924
-0.35834421
-0.36390625
-0.36800297
-0.37061788
-0.37174043
-0.37136612
-0.36949645
-0.36613895
-0.36130713
-0.35502046
-0.34730425
-0.33818956
-0.32771311
-0.31591707
-0.30284894
-0.28856135
-0.27311182
-0.25656257
-0.23898023
-0.2204356
-0.20100335
-0.18076174
-0.15979226
-0.13817936
-0.11601005
-0.093373615
-0.070361196
-0.047065458
-0.023580204
0
0
0.02726843
0.054427059
0.081366529
0.10797837
0.13415541
0.15979226
0.18478568
0.20903504
0.23244268
0.25491436
0.27635959
0.29669202
0.31582977
0.33369579
0.35021814
0.36533028
0.37897136
0.39108646
0.40162679
0.41054991
0.41781989
0.42340746
0.42729012
0.42945223
0.42988509
0.42858695
0.42556304
0.42082555
0.41439353
0.4062929
0.39655627
0.38522285
0.37233827
0.35795442
0.34212921
0.32492637
0.30641517
0.28667013
0.26577078
0.24380127
0.22085005
0.19700955
0.17237576
0.14704787
0.12112787
0.094720135
0.067930995
0.04086832
0.013641082
-0.013641082
-0.04086832
-0.067930995
-0.094720135
-0.12112787
-0.14704787
-0.17237576
-0.19700955
-0.22085005
-0.24380127
-0.26577078
-0.28667013
-0.30641517
-0.32492637
-0.34212921
-0.35795442
-0.37233827
-0.38522285
-0.39655627
-0.4062929
-0.41439353
-0.42082555
-0.42556304
-0.42858695
-0.42988509
-0.42945223
-0.42729012
-0.42340746
-0.41781989
-0.41054991
-0.40162679
-0.39108646
-0.37897136
-0.36533028
-0.35021814
-0.33369579
-0.31582977
-0.29669202
-0.27635959
-0.25491436
-0.23244268
-0.20903504
-0.18478568
-0.15979226
-0.13415541
-0.10797837
-0.081366529
-0.054427059
-0.02726843
0
0
0.030846855
0.061569501
0.092044228
0.12214833
0.15176058
0.18076174
0.20903504
0.23646663
0.26294605
0.28836668
0.31262616
0.3356268
0.357276
0.37748657
0.39617713
0.41327243
0.42870363
0.44240858
0.45433212
0.46442622
0.47265024
0.47897106
0.48336324
0.48580908
0.48629874
0.48483025
0.48140952
0.47605032
0.46877424
0.45961056
0.4485962
0.4357755
0.42120008
0.40492864
0.3870267
0.36756634
0.34662591
0.32428975
0.30064778
0.27579522
0.24983212
0.22286303
0.19499656
0.1663449
0.13702344
0.10715022
0.076845553
0.046231454
0.015431197
-0.015431197
-0.046231454
-0.076845553
-0.10715022
-0.13702344
-0.1663449
-0.19499656
-0.22286303
-0.24983212
-0.27579522
-0.30064778
-0.32428975
-0.34662591
-0.36756634
-0.3870267
-0.40492864
-0.42120008
-0.4357755
-0.4485962
-0.45961056
-0.46877424
-0.47605032
-0.48140952
-0.48483025
-0.48629874
-0.48580908
-0.48336324
-0.47897106
-0.47265024
-0.46442622
-0.45433212
-0.44240858
-0.42870363
-0.41327243
-0.39617713
-0.37748657
-0.357276
-0.3356268
-0.31262616
-0.28836668
-0.26294605
-0.23646663
-0.20903504
-0.18076174
-0.15176058
-0.12214833
-0.092044228
-0.061569501
-0.030846855
0
0
0.034301072
0.068464025
0.1023513
0.13582644
0.16875465
0.20100335
0.23244268
0.26294605
0.29239062
0.32065784
0.34763389
0.37321013
0.39728359
0.41975733
0.44054086
0.45955048
0.47670966
0.49194929
0.50520802
0.51643245
0.52557739
0.53260602
0.53749003
0.54020976
0.54075425
0.53912132
0.53531753
0.52935821
0.52126736
0.51107754
0.49882979
0.48457344
0.46836587
0.45027236
0.43036577
0.40872624
0.38544092
0.36060356
0.33431418
0.30667863
0.2778082
0.24781913
0.21683218
0.18497213
0.15236726
0.11914885
0.085450682
0.05140843
0.017159175
-0.017159175
-0.05140843
-0.085450682
-0.11914885
-0.15236726
-0.18497213
-0.21683218
-0.24781913
-0.2778082
-0.30667863
-0.33431418
-0.36060356
-0.38544092
-0.40872624
-0.43036577
-0.45027236
-0.46836587
-0.48457344
-0.49882979
-0.51107754
-0.52126736
-0.52935821
-0.53531753
-0.53912132
-0.54075425
-0.54020976
-0.53749003
-0.53260602
-0.52557739
-0.51643245
-0.50520802
-0.49194929
-0.47670966
-0.45955048
-0.44054086
-0.41975733
-0.39728359
-0.37321013
-0.34763389
-0.32065784
-0.29239062
-0.26294605
-0.23244268
-0.20100335
-0.16875465
-0.13582644
-0.1023513
-0.068464025
-0.034301072
0
0
0.03761717
0.075082868
0.11224623
0.14895762
0.18506922
0.2204356
0.25491436
0.28836668
0.32065784
0.35165783
0.38124182
0.40929068
0.43569147
0.46033789
0.48313069
0.50397809
0.52279614
0.53950909
0.55404962
0.56635919
0.57638823
0.58409635
0.58945253
0.59243519
0.59303233
0.59124153
0.58707001
0.58053457
0.57166151
0.56048658
0.54705477
0.53142016
0.51364571
0.49380299
0.4719719
0.44824035
0.42270389
0.39546535
0.36663441
0.33632716
0.30466565
0.27177735
0.2377947
0.20285454
0.16709755
0.13066772
0.093711731
0.056378403
0.018818059
-0.018818059
-0.056378403
-0.093711731
-0.13066772
-0.16709755
-0.20285454
-0.2377947
-0.27177735
-0.30466565
-0.33632716
-0.36663441
-0.39546535
-0.42270389
-0.44824035
-0.4719719
-0.49380299
-0.51364571
-0.53142016
-0.54705477
-0.56048658
-0.57166151
-0.58053457
-0.58707001
-0.59124153
-0.59303233
-0.59243519
-0.58945253
-0.58409635
-0.57638823
-0.56635919
-0.55404962
-0.53950909
-0.52279614
-0.50397809
-0.48313069
-0.46033789
-0.43569147
-0.40929068
-0.38124182
-0.35165783
-0.32065784
-0.28836668
-0.25491436
-0.2204356
-0.18506922
-0.14895762
-0.11224623
-0.075082868
-0.03761717
0
0
0.040781797
0.081399379
0.1216892
0.16148901
0.20063857
0.23898023
0.27635959
0.31262616
0.34763389
0.38124182
0.41331462
0.44372316
0.47234497
0.49906482
0.52377511
0.54637635
0.56677752
0.58489647
0.60066026
0.6140054
0.62487815
0.63323474
0.63904152
0.6422751
0.64292247
0.64098102
0.63645856
0.62937331
0.61975379
0.60763875
0.59307696
0.57612705
0.55685729
0.53534525
0.51167758
0.48594955
0.45826478
0.42873474
0.39747834
0.36462143
0.33029631
0.29464122
0.2577997
0.21992012
0.18115499
0.14166042
0.10159544
0.06112136
0.020401169
-0.020401169
-0.06112136
-0.10159544
-0.14166042
-0.18115499
-0.21992012
-0.2577997
-0.29464122
-0.33029631
-0.36462143
-0.39747834
-0.42873474
-0.45826478
-0.48594955
-0.51167758
-0.53534525
-0.55685729
-0.57612705
-0.59307696
-0.60763875
-0.61975379
-0.62937331
-0.63645856
-0.64098102
-0.64292247
-0.6422751
-0.63904152
-0.63323474
-0.62487815
-0.6140054
-0.60066026
-0.58489647
-0.56677752
-0.54637635
-0.52377511
-0.49906482
-0.47234497
-0.44372316
-0.41331462
-0.38124182
-0.34763389
-0.31262616
-0.27635959
-0.23898023
-0.20063857
-0.16148901
-0.1216892
-0.081399379
-0.040781797
0
0
0.04378221
0.087388124
0.13064216
0.17337014
0.21540002
0.25656257
0.29669202
0.3356268
0.37321013
0.40929068
0.44372316
0.47636892
0.50709651
0.5357822
0.56231049
0.58657455
0.60847668
0.62792869
0.64485225
0.65917922
0.67085191
0.67982332
0.68605731
0.6895288
0.6902238
0.68813951
0.68328432
0.67567779
0.66535054
0.65234417
0.63671103
0.61851408
0.59782659
0.57473187
0.5493229
0.52170201
0.4919804
0.46027777
0.42672175
0.39144748
0.35459699
0.31631867
0.27676663
0.23610016
0.194483
0.15208272
0.10907005
0.065618203
0.021902132
-0.021902132
-0.065618203
-0.10907005
-0.15208272
-0.194483
-0.23610016
-0.27676663
-0.31631867
-0.35459699
-0.39144748
-0.42672175
-0.46027777
-0.4919804
-0.52170201
-0.5493229
-0.57473187
-0.59782659
-0.61851408
-0.63671103
-0.65234417
-0.66535054
-0.67567779
-0.68328432
-0.68813951
-0.6902238
-0.6895288
-0.68605731
-0.67982332
-0.67085191
-0.65917922
-0.64485225
-0.62792869
-0.60847668
-0.58657455
-0.56231049
-0.5357822
-0.50709651
-0.47636892
-0.44372316
-0.40929068
-0.37321013
-0.3356268
-0.29669202
-0.25656257
-0.21540002
-0.17337014
-0.13064216
-0.087388124
-0.04378221
0
0
0.046606327
0.093024987
0.13906907
0.18455317
0.22929414
0.27311182
0.31582977
0.357276
0.39728359
0.43569147
0.47234497
0.50709651
0.53980614
0.57034217
0.59858163
0.62441081
0.64772572
0.66843246
0.68644765
0.70169877
0.71412439
0.72367448
0.7303106
0.73400601
0.73474583
0.7325271
0.72735873
0.71926155
0.70826816
0.69442282
0.67778129
0.65841057
0.63638866
0.61180424
0.5847563
0.55535375
0.52371499
0.48996742
0.45424692
0.41669732
0.37746984
0.33672241
0.29461912
0.25132951
0.20702788
0.16189262
0.11610548
0.069850824
0.023314902
-0.023314902
-0.069850824
-0.11610548
-0.16189262
-0.20702788
-0.25132951
-0.29461912
-0.33672241
-0.37746984
-0.41669732
-0.45424692
-0.48996742
-0.52371499
-0.55535375
-0.5847563
-0.61180424
-0.63638866
-0.65841057
-0.67778129
-0.69442282
-0.70826816
-0.71926155
-0.72735873
-0.7325271
-0.73474583
-0.73400601
-0.7303106
-0.72367448
-0.71412439
-0.70169877
-0.68644765
-0.66843246
-0.64772572
-0.62441081
-0.59858163
-0.57034217
-0.53980614
-0.50709651
-0.47234497
-0.43569147
-0.39728359
-0.357276
-0.31582977
-0.27311182
-0.22929414
-0.18455317
-0.13906907
-0.093024987
-0.046606327
0
0
0.049242777
0.098287272
0.146936
0.19499306
0.24226496
0.28856135
0.33369579
0.37748657
0.41975733
0.46033789
0.49906482
0.5357822
0.57034217
0.60260558
0.6324425
0.6597328
0.68436659
0.70624468
0.72527897
0.74139282
0.75452134
0.76461167
0.77162318
0.77552763
0.77630931
0.77396506
0.76850433
0.75994911
0.74833383
0.73370528
0.71612236
0.69565587
0.67238822
0.64641309
0.61783509
0.58676929
0.55334077
0.51768414
0.47994299
0.44026927
0.39882274
0.3557703
0.31128529
0.26554685
0.21873914
0.17105065
0.1226734
0.073802181
0.024633791
-0.024633791
-0.073802181
-0.1226734
-0.17105065
-0.21873914
-0.26554685
-0.31128529
-0.3557703
-0.39882274
-0.44026927
-0.47994299
-0.51768414
-0.55334077
-0.58676929
-0.61783509
-0.64641309
-0.67238822
-0.69565587
-0.71612236
-0.73370528
-0.74833383
-0.75994911
-0.76850433
-0.77396506
-0.77630931
-0.77552763
-0.77162318
-0.76461167
-0.75452134
-0.74139282
-0.72527897
-0.70624468
-0.68436659
-0.6597328
-0.6324425
-0.60260558
-0.57034217
-0.5357822
-0.49906482
-0.46033789
-0.41975733
-0.37748657
-0.33369579
-0.28856135
-0.24226496
-0.19499306
-0.146936
-0.098287272
-0.049242777
0
0
0.051680944
0.10315379
0.15421127
0.20464779
0.25426027
0.30284894
0.35021814
0.39617713
0.44054086
0.48313069
0.52377511
0.56231049
0.59858163
0.6324425
0.66375675
0.69239828
0.71825177
0.74121311
0.76118985
0.77810154
0.7918801
0.80247003
0.8098287
0.81392648
0.81474686
0.81228654
0.80655543
0.79757661
0.78538623
0.77003337
0.75157987
0.73010001
0.7056803
0.67841907
0.64842608
0.61582211
0.58073844
0.54331634
0.50370649
0.4620684
0.41856973
0.37338562
0.32669802
0.27869492
0.22956961
0.17951991
0.12874735
0.077456362
0.025853488
-0.025853488
-0.077456362
-0.12874735
-0.17951991
-0.22956961
-0.27869492
-0.32669802
-0.37338562
-0.41856973
-0.4620684
-0.50370649
-0.54331634
-0.58073844
-0.61582211
-0.64842608
-0.67841907
-0.7056803
-0.73010001
-0.75157987
-0.77003337
-0.78538623
-0.79757661
-0.80655543
-0.81228654
-0.81474686
-0.81392648
-0.8098287
-0.80247003
-0.7918801
-0.77810154
-0.76118985
-0.74121311
-0.71825177
-0.69239828
-0.66375675
-0.6324425
-0.59858163
-0.56231049
-0.52377511
-0.48313069
-0.44054086
-0.39617713
-0.35021814
-0.30284894
-0.25426027
-0.20464779
-0.15421127
-0.10315379
-0.051680944
0
0
0.053911011
0.10760494
0.16086558
0.21347848
0.26523177
0.31591707
0.36533028
0.41327243
0.45955048
0.50397809
0.54637635
0.58657455
0.62441081
0.6597328
0.69239828
0.72227571
0.74924479
0.77319693
0.79403568
0.81167713
0.82605023
0.83709713
0.84477333
0.84904793
0.84990371
0.84733723
0.84135882
0.83199256
0.81927615
0.80326081
0.78401102
0.7616043
0.73613086
0.70769329
0.67640608
0.64239523
0.60579767
0.56676079
0.52544175
0.48200695
0.43663128
0.38949745
0.34079525
0.29072078
0.23947569
0.18726631
0.13430288
0.080798654
0.026969083
-0.026969083
-0.080798654
-0.13430288
-0.18726631
-0.23947569
-0.29072078
-0.34079525
-0.38949745
-0.43663128
-0.48200695
-0.52544175
-0.56676079
-0.60579767
-0.64239523
-0.67640608
-0.70769329
-0.73613086
-0.7616043
-0.78401102
-0.80326081
-0.81927615
-0.83199256
-0.84135882
-0.84733723
-0.84990371
-0.84904793
-0.84477333
-0.83709713
-0.82605023
-0.81167713
-0.79403568
-0.77319693
-0.74924479
-0.72227571
-0.69239828
-0.6597328
-0.62441081
-0.58657455
-0.54637635
-0.50397809
-0.45955048
-0.41327243
-0.36533028
-0.31591707
-0.26523177
-0.21347848
-0.16086558
-0.10760494
-0.053911011
0
0
0.055923996
0.11162281
0.16687215
0.22144956
0.27513527
0.32771311
0.37897136
0.42870363
0.47670966
0.52279614
0.56677752
0.60847668
0.64772572
0.68436659
0.71825177
0.74924479
0.77722088
0.80206736
0.82368421
0.84198437
0.85689416
0.86835354
0.87631636
0.88075057
0.8816383
0.87897599
0.87277435
0.86305836
0.84986714
0.8332538
0.81328524
0.79004187
0.76361728
0.73411788
0.70166244
0.66638165
0.62841758
0.58792309
0.54506125
0.50000463
0.45293467
0.40404091
0.35352021
0.30157602
0.24841748
0.19425866
0.13931762
0.083815599
0.027976083
-0.027976083
-0.083815599
-0.13931762
-0.19425866
-0.24841748
-0.30157602
-0.35352021
-0.40404091
-0.45293467
-0.50000463
-0.54506125
-0.58792309
-0.62841758
-0.66638165
-0.70166244
-0.73411788
-0.76361728
-0.79004187
-0.81328524
-0.8332538
-0.84986714
-0.86305836
-0.87277435
-0.87897599
-0.8816383
-0.88075057
-0.87631636
-0.86835354
-0.85689416
-0.84198437
-0.82368421
-0.80206736
-0.77722088
-0.74924479
-0.71825177
-0.68436659
-0.64772572
-0.60847668
-0.56677752
-0.52279614
-0.47670966
-0.42870363
-0.37897136
-0.32771311
-0.27513527
-0.22144956
-0.16687215
-0.11162281
-0.055923996
0
0
0.057711795
0.11519121
0.17220678
0.22852894
0.2839309
0.33818956
0.39108646
0.44240858
0.49194929
0.53950909
0.58489647
0.62792869
0.66843246
0.70624468
0.74121311
0.77319693
0.80206736
0.82770816
0.85001606
0.86890124
0.88428767
0.89611339
0.90433077
0.90890673
0.90982284
0.90707542
0.90067553
0.89064893