# vtk DataFile Version 3.0
vtk output
ASCII
DATASET STRUCTURED_GRID
DIMENSIONS 32 32 1
POINTS 1024 float
0 0 0
0 0.03125 0
0 0.0625 0
0 0.09375 0
0 0.125 0
0 0.15625 0
0 0.1875 0
0 0.21875 0
0 0.25 0
0 0.28125 0
0 0.3125 0
0 0.34375 0
0 0.375 0
0 0.40625 0
0 0.4375 0
0 0.46875 0
0 0.5 0
0 0.53125 0
0 0.5625 0
0 0.59375 0
0 0.625 0
0 0.65625 0
0 0.6875 0
0 0.71875 0
0 0.75 0
0 0.78125 0
0 0.8125 0
0 0.84375 0
0 0.875 0
0 0.90625 0
0 0.9375 0
0 0.96875 0
0.03125 0 0
0.03125 0.03125 0
0.03125 0.0625 0
0.03125 0.09375 0
0.03125 0.125 0
0.03125 0.15625 0
0.03125 0.1875 0
0.03125 0.21875 0
0.03125 0.25 0
0.03125 0.28125 0
0.03125 0.3125 0
0.03125 0.34375 0
0.03125 0.375 0
0.03125 0.40625 0
0.03125 0.4375 0
0.03125 0.46875 0
0.03125 0.5 0
0.03125 0.53125 0
0.03125 0.5625 0
0.03125 0.59375 0
0.03125 0.625 0
0.03125 0.65625 0
0.03125 0.6875 0
0.03125 0.71875 0
0.03125 0.75 0
0.03125 0.78125 0
0.03125 0.8125 0
0.03125 0.84375 0
0.03125 0.875 0
0.03125 0.90625 0
0.03125 0.9375 0
0.03125 0.96875 0
0.0625 0 0
0.0625 0.03125 0
0.0625 0.0625 0
0.0625 0.09375 0
0.0625 0.125 0
0.0625 0.15625 0
0.0625 0.1875 0
0.0625 0.21875 0
0.0625 0.25 0
0.0625 0.28125 0
0.0625 0.3125 0
0.0625 0.34375 0
0.0625 0.375 0
0.0625 0.40625 0
0.0625 0.4375 0
0.0625 0.46875 0
0.0625 0.5 0
0.0625 0.53125 0
0.0625 0.5625 0
0.0625 0.59375 0
0.0625 0.625 0
0.0625 0.65625 0
0.0625 0.6875 0
0.0625 0.71875 0
0.0625 0.75 0
0.0625 0.78125 0
0.0625 0.8125 0
0.0625 0.84375 0
0.0625 0.875 0
0.0625 0.90625 0
0.0625 0.9375 0
0.0625 0.96875 0
0.09375 0 0
0.09375 0.03125 0
0.09375 0.0625 0
0.09375 0.09375 0
0.09375 0.125 0
0.09375 0.15625 0
0.09375 0.1875 0
0.09375 0.21875 0
0.09375 0.25 0
0.09375 0.28125 0
0.09375 0.3125 0
0.09375 0.34375 0
0.09375 0.375 0
0.09375 0.40625 0
0.09375 0.4375 0
0.09375 0.46875 0
0.09375 0.5 0
0.09375 0.53125 0
0.09375 0.5625 0
0.09375 0.59375 0
0.09375 0.625 0
0.09375 0.65625 0
0.09375 0.6875 0
0.09375 0.71875 0
0.09375 0.75 0
0.09375 0.78125 0
0.09375 0.8125 0
0.09375 0.84375 0
0.09375 0.875 0
0.09375 0.90625 0
0.09375 0.9375 0
0.09375 0.96875 0
0.125 0 0
0.125 0.03125 0
0.125 0.0625 0
0.125 0.09375 0
0.125 0.125 0
0.125 0.15625 0
0.125 0.1875 0
0.125 0.21875 0
0.125 0.25 0
0.125 0.28125 0
0.125 0.3125 0
0.125 0.34375 0
0.125 0.375 0
0.125 0.40625 0
0.125 0.4375 0
0.125 0.46875 0
0.125 0.5 0
0.125 0.53125 0
0.125 0.5625 0
0.125 0.59375 0
0.125 0.625 0
0.125 0.65625 0
0.125 0.6875 0
0.125 0.71875 0
0.125 0.75 0
0.125 0.78125 0
0.125 0.8125 0
0.125 0.84375 0
0.125 0.875 0
0.125 0.90625 0
0.125 0.9375 0
0.125 0.96875 0
0.15625 0 0
0.15625 0.03125 0
0.15625 0.0625 0
0.15625 0.09375 0
0.15625 0.125 0
0.15625 0.15625 0
0.15625 0.1875 0
0.15625 0.21875 0
0.15625 0.25 0
0.15625 0.28125 0
0.15625 0.3125 0
0.15625 0.34375 0
0.15625 0.375 0
0.15625 0.40625 0
0.15625 0.4375 0
0.15625 0.46875 0
0.15625 0.5 0
0.15625 0.53125 0
0.15625 0.5625 0
0.15625 0.59375 0
0.15625 0.625 0
0.15625 0.65625 0
0.15625 0.6875 0
0.15625 0.71875 0
0.15625 0.75 0
0.15625 0.78125 0
0.15625 0.8125 0
0.15625 0.84375 0
0.15625 0.875 0
0.15625 0.90625 0
0.15625 0.9375 0
0.15625 0.96875 0
0.1875 0 0
0.1875 0.03125 0
0.1875 0.0625 0
0.1875 0.09375 0
0.1875 0.125 0
0.1875 0.15625 0
0.1875 0.1875 0
0.1875 0.21875 0
0.1875 0.25 0
0.1875 0.28125 0
0.1875 0.3125 0
0.1875 0.34375 0
0.1875 0.375 0
0.1875 0.40625 0
0.1875 0.4375 0
0.1875 0.46875 0
0.1875 0.5 0
0.1875 0.53125 0
0.1875 0.5625 0
0.1875 0.59375 0
0.1875 0.625 0
0.1875 0.65625 0
0.1875 0.6875 0
0.1875 0.71875 0
0.1875 0.75 0
0.1875 0.78125 0
0.1875 0.8125 0
0.1875 0.84375 0
0.1875 0.875 0
0.1875 0.90625 0
0.1875 0.9375 0
0.1875 0.96875 0
0.21875 0 0
0.21875 0.03125 0
0.21875 0.0625 0
0.21875 0.09375 0
0.21875 0.125 0
0.21875 0.15625 0
0.21875 0.1875 0
0.21875 0.21875 0
0.21875 0.25 0
0.21875 0.28125 0
0.21875 0.3125 0
0.21875 0.34375 0
0.21875 0.375 0
0.21875 0.40625 0
0.21875 0.4375 0
0.21875 0.46875 0
0.21875 0.5 0
0.21875 0.53125 0
0.21875 0.5625 0
0.21875 0.59375 0
0.21875 0.625 0
0.21875 0.65625 0
0.21875 0.6875 0
0.21875 0.71875 0
0.21875 0.75 0
0.21875 0.78125 0
0.21875 0.8125 0
0.21875 0.84375 0
0.21875 0.875 0
0.21875 0.90625 0
0.21875 0.9375 0
0.21875 0.96875 0
0.25 0 0
0.25 0.03125 0
0.25 0.0625 0
0.25 0.09375 0
0.25 0.125 0
0.25 0.15625 0
0.25 0.1875 0
0.25 0.21875 0
0.25 0.25 0
0.25 0.28125 0
0.25 0.3125 0
0.25 0.34375 0
0.25 0.375 0
0.25 0.40625 0
0.25 0.4375 0
0.25 0.46875 0
0.25 0.5 0
0.25 0.53125 0
0.25 0.5625 0
0.25 0.59375 0
0.25 0.625 0
0.25 0.65625 0
0.25 0.6875 0
0.25 0.71875 0
0.25 0.75 0
0.25 0.78125 0
0.25 0.8125 0
0.25 0.84375 0
0.25 0.875 0
0.25 0.90625 0
0.25 0.9375 0
0.25 0.96875 0
0.28125 0 0
0.28125 0.03125 0
0.28125 0.0625 0
0.28125 0.09375 0
0.28125 0.125 0
0.28125 0.15625 0
0.28125 0.1875 0
0.28125 0.21875 0
0.28125 0.25 0
0.28125 0.28125 0
0.28125 0.3125 0
0.28125 0.34375 0
0.28125 0.375 0
0.28125 0.40625 0
0.28125 0.4375 0
0.28125 0.46875 0
0.28125 0.5 0
0.28125 0.53125 0
0.28125 0.5625 0
0.28125 0.59375 0
0.28125 0.625 0
0.28125 0.65625 0
0.28125 0.6875 0
0.28125 0.71875 0
0.28125 0.75 0
0.28125 0.78125 0
0.28125 0.8125 0
0.28125 0.84375 0
0.28125 0.875 0
0.28125 0.90625 0
0.28125 0.9375 0
0.28125 0.96875 0
0.3125 0 0
0.3125 0.03125 0
0.3125 0.0625 0
0.3125 0.09375 0
0.3125 0.125 0
0.3125 0.15625 0
0.3125 0.1875 0
0.3125 0.21875 0
0.3125 0.25 0
0.3125 0.28125 0
0.3125 0.3125 0
0.3125 0.34375 0
0.3125 0.375 0
0.3125 0.40625 0
0.3125 0.4375 0
0.3125 0.46875 0
0.3125 0.5 0
0.3125 0.53125 0
0.3125 0.5625 0
0.3125 0.59375 0
0.3125 0.625 0
0.3125 0.65625 0
0.3125 0.6875 0
0.3125 0.71875 0
0.3125 0.75 0
0.3125 0.78125 0
0.3125 0.8125 0
0.3125 0.84375 0
0.3125 0.875 0
0.3125 0.90625 0
0.3125 0.9375 0
0.3125 0.96875 0
0.34375 0 0
0.34375 0.03125 0
0.34375 0.0625 0
0.34375 0.09375 0
0.34375 0.125 0
0.34375 0.15625 0
0.34375 0.1875 0
0.34375 0.21875 0
0.34375 0.25 0
0.34375 0.28125 0
0.34375 0.3125 0
0.34375 0.34375 0
0.34375 0.375 0
0.34375 0.40625 0
0.34375 0.4375 0
0.34375 0.46875 0
0.34375 0.5 0
0.34375 0.53125 0
0.34375 0.5625 0
0.34375 0.59375 0
0.34375 0.625 0
0.34375 0.65625 0
0.34375 0.6875 0
0.34375 0.71875 0
0.34375 0.75 0
0.34375 0.78125 0
0.34375 0.8125 0
0.34375 0.84375 0
0.34375 0.875 0
0.34375 0.90625 0
0.34375 0.9375 0
0.34375 0.96875 0
0.375 0 0
0.375 0.03125 0
0.375 0.0625 0
0.375 0.09375 0
0.375 0.125 0
0.375 0.15625 0
0.375 0.1875 0
0.375 0.21875 0
0.375 0.25 0
0.375 0.28125 0
0.375 0.3125 0
0.375 0.34375 0
0.375 0.375 0
0.375 0.40625 0
0.375 0.4375 0
0.375 0.46875 0
0.375 0.5 0
0.375 0.53125 0
0.375 0.5625 0
0.375 0.59375 0
0.375 0.625 0
0.375 0.65625 0
0.375 0.6875 0
0.375 0.71875 0
0.375 0.75 0
0.375 0.78125 0
0.375 0.8125 0
0.375 0.84375 0
0.375 0.875 0
0.375 0.90625 0
0.375 0.9375 0
0.375 0.96875 0
0.40625 0 0
0.40625 0.03125 0
0.40625 0.0625 0
0.40625 0.09375 0
0.40625 0.125 0
0.40625 0.15625 0
0.40625 0.1875 0
0.40625 0.21875 0
0.40625 0.25 0
0.40625 0.28125 0
0.40625 0.3125 0
0.40625 0.34375 0
0.40625 0.375 0
0.40625 0.40625 0
0.40625 0.4375 0
0.40625 0.46875 0
0.40625 0.5 0
0.40625 0.53125 0
0.40625 0.5625 0
0.40625 0.59375 0
0.40625 0.625 0
0.40625 0.65625 0
0.40625 0.6875 0
0.40625 0.71875 0
0.40625 0.75 0
0.40625 0.78125 0
0.40625 0.8125 0
0.40625 0.84375 0
0.40625 0.875 0
0.40625 0.90625 0
0.40625 0.9375 0
0.40625 0.96875 0
0.4375 0 0
0.4375 0.03125 0
0.4375 0.0625 0
0.4375 0.09375 0
0.4375 0.125 0
0.4375 0.15625 0
0.4375 0.1875 0
0.4375 0.21875 0
0.4375 0.25 0
0.4375 0.28125 0
0.4375 0.3125 0
0.4375 0.34375 0
0.4375 0.375 0
0.4375 0.40625 0
0.4375 0.4375 0
0.4375 0.46875 0
0.4375 0.5 0
0.4375 0.53125 0
0.4375 0.5625 0
0.4375 0.59375 0
0.4375 0.625 0
0.4375 0.65625 0
0.4375 0.6875 0
0.4375 0.71875 0
0.4375 0.75 0
0.4375 0.78125 0
0.4375 0.8125 0
0.4375 0.84375 0
0.4375 0.875 0
0.4375 0.90625 0
0.4375 0.9375 0
0.4375 0.96875 0
0.46875 0 0
0.46875 0.03125 0
0.46875 0.0625 0
0.46875 0.09375 0
0.46875 0.125 0
0.46875 0.15625 0
0.46875 0.1875 0
0.46875 0.21875 0
0.46875 0.25 0
0.46875 0.28125 0
0.46875 0.3125 0
0.46875 0.34375 0
0.46875 0.375 0
0.46875 0.40625 0
0.46875 0.4375 0
0.46875 0.46875 0
0.46875 0.5 0
0.46875 0.53125 0
0.46875 0.5625 0
0.46875 0.59375 0
0.46875 0.625 0
0.46875 0.65625 0
0.46875 0.6875 0
0.46875 0.71875 0
0.46875 0.75 0
0.46875 0.78125 0
0.46875 0.8125 0
0.46875 0.84375 0
0.46875 0.875 0
0.46875 0.90625 0
0.46875 0.9375 0
0.46875 0.96875 0
0.5 0 0
0.5 0.03125 0
0.5 0.0625 0
0.5 0.09375 0
0.5 0.125 0
0.5 0.15625 0
0.5 0.1875 0
0.5 0.21875 0
0.5 0.25 0
0.5 0.28125 0
0.5 0.3125 0
0.5 0.34375 0
0.5 0.375 0
0.5 0.40625 0
0.5 0.4375 0
0.5 0.46875 0
0.5 0.5 0
0.5 0.53125 0
0.5 0.5625 0
0.5 0.59375 0
0.5 0.625 0
0.5 0.65625 0
0.5 0.6875 0
0.5 0.71875 0
0.5 0.75 0
0.5 0.78125 0
0.5 0.8125 0
0.5 0.84375 0
0.5 0.875 0
0.5 0.90625 0
0.5 0.9375 0
0.5 0.96875 0
0.53125 0 0
0.53125 0.03125 0
0.53125 0.0625 0
0.53125 0.09375 0
0.53125 0.125 0
0.53125 0.15625 0
0.53125 0.1875 0
0.53125 0.21875 0
0.53125 0.25 0
0.53125 0.28125 0
0.53125 0.3125 0
0.53125 0.34375 0
0.53125 0.375 0
0.53125 0.40625 0
0.53125 0.4375 0
0.53125 0.46875 0
0.53125 0.5 0
0.53125 0.53125 0
0.53125 0.5625 0
0.53125 0.59375 0
0.53125 0.625 0
0.53125 0.65625 0
0.53125 0.6875 0
0.53125 0.71875 0
0.53125 0.75 0
0.53125 0.78125 0
0.53125 0.8125 0
0.53125 0.84375 0
0.53125 0.875 0
0.53125 0.90625 0
0.53125 0.9375 0
0.53125 0.96875 0
0.5625 0 0
0.5625 0.03125 0
0.5625 0.0625 0
0.5625 0.09375 0
0.5625 0.125 0
0.5625 0.15625 0
0.5625 0.1875 0
0.5625 0.21875 0
0.5625 0.25 0
0.5625 0.28125 0
0.5625 0.3125 0
0.5625 0.34375 0
0.5625 0.375 0
0.5625 0.40625 0
0.5625 0.4375 0
0.5625 0.46875 0
0.5625 0.5 0
0.5625 0.53125 0
0.5625 0.5625 0
0.5625 0.59375 0
0.5625 0.625 0
0.5625 0.65625 0
0.5625 0.6875 0
0.5625 0.71875 0
0.5625 0.75 0
0.5625 0.78125 0
0.5625 0.8125 0
0.5625 0.84375 0
0.5625 0.875 0
0.5625 0.90625 0
0.5625 0.9375 0
0.5625 0.96875 0
0.59375 0 0
0.59375 0.03125 0
0.59375 0.0625 0
0.59375 0.09375 0
0.59375 0.125 0
0.59375 0.15625 0
0.59375 0.1875 0
0.59375 0.21875 0
0.59375 0.25 0
0.59375 0.28125 0
0.59375 0.3125 0
0.59375 0.34375 0
0.59375 0.375 0
0.59375 0.40625 0
0.59375 0.4375 0
0.59375 0.46875 0
0.59375 0.5 0
0.59375 0.53125 0
0.59375 0.5625 0
0.59375 0.59375 0
0.59375 0.625 0
0.59375 0.65625 0
0.59375 0.6875 0
0.59375 0.71875 0
0.59375 0.75 0
0.59375 0.78125 0
0.59375 0.8125 0
0.59375 0.84375 0
0.59375 0.875 0
0.59375 0.90625 0
0.59375 0.9375 0
0.59375 0.96875 0
0.625 0 0
0.625 0.03125 0
0.625 0.0625 0
0.625 0.09375 0
0.625 0.125 0
0.625 0.15625 0
0.625 0.1875 0
0.625 0.21875 0
0.625 0.25 0
0.625 0.28125 0
0.625 0.3125 0
0.625 0.34375 0
0.625 0.375 0
0.625 0.40625 0
0.625 0.4375 0
0.625 0.46875 0
0.625 0.5 0
0.625 0.53125 0
0.625 0.5625 0
0.625 0.59375 0
0.625 0.625 0
0.625 0.65625 0
0.625 0.6875 0
0.625 0.71875 0
0.625 0.75 0
0.625 0.78125 0
0.625 0.8125 0
0.625 0.84375 0
0.625 0.875 0
0.625 0.90625 0
0.625 0.9375 0
0.625 0.96875 0
0.65625 0 0
0.65625 0.03125 0
0.65625 0.0625 0
0.65625 0.09375 0
0.65625 0.125 0
0.65625 0.15625 0
0.65625 0.1875 0
0.65625 0.21875 0
0.65625 0.25 0
0.65625 0.28125 0
0.65625 0.3125 0
0.65625 0.34375 0
0.65625 0.375 0
0.65625 0.40625 0
0.65625 0.4375 0
0.65625 0.46875 0
0.65625 0.5 0
0.65625 0.53125 0
0.65625 0.5625 0
0.65625 0.59375 0
0.65625 0.625 0
0.65625 0.65625 0
0.65625 0.6875 0
0.65625 0.71875 0
0.65625 0.75 0
0.65625 0.78125 0
0.65625 0.8125 0
0.65625 0.84375 0
0.65625 0.875 0
0.65625 0.90625 0
0.65625 0.9375 0
0.65625 0.96875 0
0.6875 0 0
0.6875 0.03125 0
0.6875 0.0625 0
0.6875 0.09375 0
0.6875 0.125 0
0.6875 0.15625 0
0.6875 0.1875 0
0.6875 0.21875 0
0.6875 0.25 0
0.6875 0.28125 0
0.6875 0.3125 0
0.6875 0.34375 0
0.6875 0.375 0
0.6875 0.40625 0
0.6875 0.4375 0
0.6875 0.46875 0
0.6875 0.5 0
0.6875 0.53125 0
0.6875 0.5625 0
0.6875 0.59375 0
0.6875 0.625 0
0.6875 0.65625 0
0.6875 0.6875 0
0.6875 0.71875 0
0.6875 0.75 0
0.6875 0.78125 0
0.6875 0.8125 0
0.6875 0.84375 0
0.6875 0.875 0
0.6875 0.90625 0
0.6875 0.9375 0
0.6875 0.96875 0
0.71875 0 0
0.71875 0.03125 0
0.71875 0.0625 0
0.71875 0.09375 0
0.71875 0.125 0
0.71875 0.15625 0
0.71875 0.1875 0
0.71875 0.21875 0
0.71875 0.25 0
0.71875 0.28125 0
0.71875 0.3125 0
0.71875 0.34375 0
0.71875 0.375 0
0.71875 0.40625 0
0.71875 0.4375 0
0.71875 0.46875 0
0.71875 0.5 0
0.71875 0.53125 0
0.71875 0.5625 0
0.71875 0.59375 0
0.71875 0.625 0
0.71875 0.65625 0
0.71875 0.6875 0
0.71875 0.71875 0
0.71875 0.75 0
0.71875 0.78125 0
0.71875 0.8125 0
0.71875 0.84375 0
0.71875 0.875 0
0.71875 0.90625 0
0.71875 0.9375 0
0.71875 0.96875 0
0.75 0 0
0.75 0.03125 0
0.75 0.0625 0
0.75 0.09375 0
0.75 0.125 0
0.75 0.15625 0
0.75 0.1875 0
0.75 0.21875 0
0.75 0.25 0
0.75 0.28125 0
0.75 0.3125 0
0.75 0.34375 0
0.75 0.375 0
0.75 0.40625 0
0.75 0.4375 0
0.75 0.46875 0
0.75 0.5 0
0.75 0.53125 0
0.75 0.5625 0
0.75 0.59375 0
0.75 0.625 0
0.75 0.65625 0
0.75 0.6875 0
0.75 0.71875 0
0.75 0.75 0
0.75 0.78125 0
0.75 0.8125 0
0.75 0.84375 0
0.75 0.875 0
0.75 0.90625 0
0.75 0.9375 0
0.75 0.96875 0
0.78125 0 0
0.78125 0.03125 0
0.78125 0.0625 0
0.78125 0.09375 0
0.78125 0.125 0
0.78125 0.15625 0
0.78125 0.1875 0
0.78125 0.21875 0
0.78125 0.25 0
0.78125 0.28125 0
0.78125 0.3125 0
0.78125 0.34375 0
0.78125 0.375 0
0.78125 0.40625 0
0.78125 0.4375 0
0.78125 0.46875 0
0.78125 0.5 0
0.78125 0.53125 0
0.78125 0.5625 0
0.78125 0.59375 0
0.78125 0.625 0
0.78125 0.65625 0
0.78125 0.6875 0
0.78125 0.71875 0
0.78125 0.75 0
0.78125 0.78125 0
0.78125 0.8125 0
0.78125 0.84375 0
0.78125 0.875 0
0.78125 0.90625 0
0.78125 0.9375 0
0.78125 0.96875 0
0.8125 0 0
0.8125 0.03125 0
0.8125 0.0625 0
0.8125 0.09375 0
0.8125 0.125 0
0.8125 0.15625 0
0.8125 0.1875 0
0.8125 0.21875 0
0.8125 0.25 0
0.8125 0.28125 0
0.8125 0.3125 0
0.8125 0.34375 0
0.8125 0.375 0
0.8125 0.40625 0
0.8125 0.4375 0
0.8125 0.46875 0
0.8125 0.5 0
0.8125 0.53125 0
0.8125 0.5625 0
0.8125 0.59375 0
0.8125 0.625 0
0.8125 0.65625 0
0.8125 0.6875 0
0.8125 0.71875 0
0.8125 0.75 0
0.8125 0.78125 0
0.8125 0.8125 0
0.8125 0.84375 0
0.8125 0.875 0
0.8125 0.90625 0
0.8125 0.9375 0
0.8125 0.96875 0
0.84375 0 0
0.84375 0.03125 0
0.84375 0.0625 0
0.84375 0.09375 0
0.84375 0.125 0
0.84375 0.15625 0
0.84375 0.1875 0
0.84375 0.21875 0
0.84375 0.25 0
0.84375 0.28125 0
0.84375 0.3125 0
0.84375 0.34375 0
0.84375 0.375 0
0.84375 0.40625 0
0.84375 0.4375 0
0.84375 0.46875 0
0.84375 0.5 0
0.84375 0.53125 0
0.84375 0.5625 0
0.84375 0.59375 0
0.84375 0.625 0
0.84375 0.65625 0
0.84375 0.6875 0
0.84375 0.71875 0
0.84375 0.75 0
0.84375 0.78125 0
0.84375 0.8125 0
0.84375 0.84375 0
0.84375 0.875 0
0.84375 0.90625 0
0.84375 0.9375 0
0.84375 0.96875 0
0.875 0 0
0.875 0.03125 0
0.875 0.0625 0
0.875 0.09375 0
0.875 0.125 0
0.875 0.15625 0
0.875 0.1875 0
0.875 0.21875 0
0.875 0.25 0
0.875 0.28125 0
0.875 0.3125 0
0.875 0.34375 0
0.875 0.375 0
0.875 0.40625 0
0.875 0.4375 0
0.875 0.46875 0
0.875 0.5 0
0.875 0.53125 0
0.875 0.5625 0
0.875 0.59375 0
0.875 0.625 0
0.875 0.65625 0
0.875 0.6875 0
0.875 0.71875 0
0.875 0.75 0
0.875 0.78125 0
0.875 0.8125 0
0.875 0.84375 0
0.875 0.875 0
0.875 0.90625 0
0.875 0.9375 0
0.875 0.96875 0
0.90625 0 0
0.90625 0.03125 0
0.90625 0.0625 0
0.90625 0.09375 0
0.90625 0.125 0
0.90625 0.15625 0
0.90625 0.1875 0
0.90625 0.21875 0
0.90625 0.25 0
0.90625 0.28125 0
0.90625 0.3125 0
0.90625 0.34375 0
0.90625 0.375 0
0.90625 0.40625 0
0.90625 0.4375 0
0.90625 0.46875 0
0.90625 0.5 0
0.90625 0.53125 0
0.90625 0.5625 0
0.90625 0.59375 0
0.90625 0.625 0
0.90625 0.65625 0
0.90625 0.6875 0
0.90625 0.71875 0
0.90625 0.75 0
0.90625 0.78125 0
0.90625 0.8125 0
0.90625 0.84375 0
0.90625 0.875 0
0.90625 0.90625 0
0.90625 0.9375 0
0.90625 0.96875 0
0.9375 0 0
0.9375 0.03125 0
0.9375 0.0625 0
0.9375 0.09375 0
0.9375 0.125 0
0.9375 0.15625 0
0.9375 0.1875 0
0.9375 0.21875 0
0.9375 0.25 0
0.9375 0.28125 0
0.9375 0.3125 0
0.9375 0.34375 0
0.9375 0.375 0
0.9375 0.40625 0
0.9375 0.4375 0
0.9375 0.46875 0
0.9375 0.5 0
0.9375 0.53125 0
0.9375 0.5625 0
0.9375 0.59375 0
0.9375 0.625 0
0.9375 0.65625 0
0.9375 0.6875 0
0.9375 0.71875 0
0.9375 0.75 0
0.9375 0.78125 0
0.9375 0.8125 0
0.9375 0.84375 0
0.9375 0.875 0
0.9375 0.90625 0
0.9375 0.9375 0
0.9375 0.96875 0
0.96875 0 0
0.96875 0.03125 0
0.96875 0.0625 0
0.96875 0.09375 0
0.96875 0.125 0
0.96875 0.15625 0
0.96875 0.1875 0
0.96875 0.21875 0
0.96875 0.25 0
0.96875 0.28125 0
0.96875 0.3125 0
0.96875 0.34375 0
0.96875 0.375 0
0.96875 0.40625 0
0.96875 0.4375 0
0.96875 0.46875 0
0.96875 0.5 0
0.96875 0.53125 0
0.96875 0.5625 0
0.96875 0.59375 0
0.96875 0.625 0
0.96875 0.65625 0
0.96875 0.6875 0
0.96875 0.71875 0
0.96875 0.75 0
0.96875 0.78125 0
0.96875 0.8125 0
0.96875 0.84375 0
0.96875 0.875 0
0.96875 0.90625 0
0.96875 0.9375 0
0.96875 0.96875 0


POINT_DATA 1024
SCALARS values float
LOOKUP_TABLE default
0
0
0
0
0
0
0
0
0
0
0
0
0
0
0
0
0
0
0
0
0
0
0
0
0
0
0
0
0
0
0
0
0
0.040660099
0.079655568
0.11538993
0.14640021
0.17141686
0.18941567
0.19965979
0.20172981
0.19554099
0.18134669
0.15972805
0.13157011
0.098025687
0.060468076
0.020434894
-0.020434894
-0.060468076
-0.098025687
-0.13157011
-0.15972805
-0.18134669
-0.19554099
-0.20172981
-0.19965979
-0.18941567
-0.17141686
-0.14640021
-0.11538993
-0.079655568
-0.040660099
0
0
0.079655568
0.15605003
0.22605578
0.28680678
0.33581588
0.37107664
0.39114548
0.39520077
0.3830765
0.35526903
0.31291681
0.25775373
0.19203819
0.11846058
0.040033181
-0.040033181
-0.11846058
-0.19203819
-0.25775373
-0.31291681
-0.35526903
-0.3830765
-0.39520077
-0.39114548
-0.37107664
-0.33581588
-0.28680678
-0.22605578
-0.15605003
-0.079655568
0
0
0.11538993
0.22605578
0.32746688
0.41547145
0.48646657
0.53754569
0.56661763
0.57249217
0.55492882
0.51464662
0.45329472
0.37338488
0.27818863
0.1716033
0.057992505
-0.057992505
-0.1716033
-0.27818863
-0.37338488
-0.45329472
-0.51464662
-0.55492882
-0.57249217
-0.56661763
-0.53754569
-0.48646657
-0.41547145
-0.32746688
-0.22605578
-0.11538993
0
0
0.14640021
0.28680678
0.41547145
0.52712667
0.61720126
0.68200756
0.71889239
0.72634568
0.70406229
0.65295451
0.57511469
0.47372961
0.35294999
0.21772055
0.07357761
-0.07357761
-0.21772055
-0.35294999
-0.47372961
-0.57511469
-0.65295451
-0.70406229
-0.72634568
-0.71889239
-0.68200756
-0.61720126
-0.52712667
-0.41547145
-0.28680678
-0.14640021
0
0
0.17141686
0.33581588
0.48646657
0.61720126
0.72266766
0.79854795
0.8417356
0.8504625
0.82437136
0.76453036
0.6733894
0.5546798
0.41326154
0.2549243
0.086150438
-0.086150438
-0.2549243
-0.41326154
-0.5546798
-0.6733894
-0.76453036
-0.82437136
-0.8504625
-0.8417356
-0.79854795
-0.72266766
-0.61720126
-0.48646657
-0.33581588
-0.17141686
0
0
0.18941567
0.37107664
0.53754569
0.68200756
0.79854795
0.8823957
0.93011807
0.93976129
0.91093058
0.84480626
0.74409547
0.61292133
0.45665411
0.28169142
0.095196257
-0.095196257
-0.28169142
-0.45665411
-0.61292133
-0.74409547
-0.84480626
-0.91093058
-0.93976129
-0.93011807
-0.8823957
-0.79854795
-0.68200756
-0.53754569
-0.37107664
-0.18941567
0
0
0.19965979
0.39114548
0.56661763
0.71889239
0.8417356
0.93011807
0.98042139
0.99058614
0.96019619
0.89049568
0.78433818
0.64606978
0.48135121
0.29692606
0.10034473
-0.10034473
-0.29692606
-0.48135121
-0.64606978
-0.78433818
-0.89049568
-0.96019619
-0.99058614
-0.98042139
-0.93011807
-0.8417356
-0.71889239
-0.56661763
-0.39114548
-0.19965979
0
0
0.20172981
0.39520077
0.57249217
0.72634568
0.8504625
0.93976129
0.99058614
1.0008563
0.97015125
0.89972811
0.79247
0.65276807
0.48634174
0.30000452
0.10138508
-0.10138508
-0.30000452
-0.48634174
-0.65276807
-0.79247
-0.89972811
-0.97015125
-1.0008563
-0.99058614
-0.93976129
-0.8504625
-0.72634568
-0.57249217
-0.39520077
-0.20172981
0
0
0.19554099
0.3830765
0.55492882
0.70406229
0.82437136
0.91093058
0.96019619
0.97015125
0.94038821
0.87212556
0.768158
0.63274195
0.47142137
0.29080075
0.098274709
-0.098274709
-0.29080075
-0.47142137
-0.63274195
-0.768158
-0.87212556
-0.94038821
-0.97015125
-0.96019619
-0.91093058
-0.82437136
-0.70406229
-0.55492882
-0.3830765
-0.19554099
0
0
0.18134669
0.35526903
0.51464662
0.65295451
0.76453036
0.84480626
0.89049568
0.89972811
0.87212556
0.80881809
0.71239752
0.5868113
0.43720096
0.26969156
0.091140962
-0.091140962
-0.26969156
-0.43720096
-0.5868113
-0.71239752
-0.80881809
-0.87212556
-0.89972811
-0.89049568
-0.84480626
-0.76453036
-0.65295451
-0.51464662
-0.35526903
-0.18134669
0
0
0.15972805
0.31291681
0.45329472
0.57511469
0.6733894
0.74409547
0.78433818
0.79247
0.768158
0.71239752
0.6274714
0.51685653
0.38508149
0.23754118
0.080275893
-0.080275893
-0.23754118
-0.38508149
-0.51685653
-0.6274714
-0.71239752
-0.768158
-0.79247
-0.78433818
-0.74409547
-0.6733894
-0.57511469
-0.45329472
-0.31291681
-0.15972805
0
0
0.13157011
0.25775373
0.37338488
0.47372961
0.5546798
0.61292133
0.64606978
0.65276807
0.63274195
0.5868113
0.51685653
0.42574159
0.31719674
0.19566582
0.06612432
-0.06612432
-0.19566582
-0.31719674
-0.42574159
-0.51685653
-0.5868113
-0.63274195
-0.65276807
-0.64606978
-0.61292133
-0.5546798
-0.47372961
-0.37338488
-0.25775373
-0.13157011
0
0
0.098025687
0.19203819
0.27818863
0.35294999
0.41326154
0.45665411
0.48135121
0.48634174
0.47142137
0.43720096
0.38508149
0.31719674
0.23632592
0.14577989
0.049265609
-0.049265609
-0.14577989
-0.23632592
-0.31719674
-0.38508149
-0.43720096
-0.47142137
-0.48634174
-0.48135121
-0.45665411
-0.41326154
-0.35294999
-0.27818863
-0.19203819
-0.098025687
0
0
0.060468076
0.11846058
0.1716033
0.21772055
0.2549243
0.28169142
0.29692606
0.30000452
0.29080075
0.26969156
0.23754118
0.19566582
0.14577989
0.089925708
0.030389959
-0.030389959
-0.089925708
-0.14577989
-0.19566582
-0.23754118
-0.26969156
-0.29080075
-0.30000452
-0.29692606
-0.28169142
-0.2549243
-0.21772055
-0.1716033
-0.11846058
-0.060468076
0
0
0.020434894
0.040033181
0.057992505
0.07357761
0.086150438
0.095196257
0.10034473
0.10138508
0.098274709
0.091140962
0.080275893
0.06612432
0.049265609
0.030389959
0.01027014
-0.01027014
-0.030389959
-0.049265609
-0.06612432
-0.080275893
-0.091140962
-0.098274709
-0.10138508
-0.10034473
-0.095196257
-0.086150438
-0.07357761
-0.057992505
-0.040033181
-0.020434894
0
0
-0.020434894
-0.040033181
-0.057992505
-0.07357761
-0.086150438
-0.095196257
-0.10034473
-0.10138508
-0.098274709
-0.091140962
-0.080275893
-0.06612432
-0.049265609
-0.030389959
-0.01027014
0.01027014
0.030389959
0.049265609
0.06612432
0.080275893
0.091140962
0.098274709
0.10138508
0.10034473
0.095196257
0.086150438
0.07357761
0.057992505
0.040033181
0.020434894
0
0
-0.060468076
-0.11846058
-0.1716033
-0.21772055
-0.2549243
-0.28169142
-0.29692606
-0.30000452
-0.29080075
-0.26969156
-0.23754118
-0.19566582
-0.14577989
-0.089925708
-0.030389959
0.030389959
0.089925708
0.14577989
0.19566582
0.23754118
0.26969156
0.29080075
0.30000452
0.29692606
0.28169142
0.2549243
0.21772055
0.1716033
0.11846058
0.060468076
0
0
-0.098025687
-0.19203819
-0.27818863
-0.35294999
-0.41326154
-0.45665411
-0.48135121
-0.48634174
-0.47142137
-0.43720096
-0.38508149
-0.31719674
-0.23632592
-0.14577989
-0.049265609
0.049265609
0.14577989
0.23632592
0.31719674
0.38508149
0.43720096
0.47142137
0.48634174
0.48135121
0.45665411
0.41326154
0.35294999
0.27818863
0.19203819
0.098025687
0
0
-0.13157011
-0.25775373
-0.37338488
-0.47372961
-0.5546798
-0.61292133
-0.64606978
-0.65276807
-0.63274195
-0.5868113
-0.51685653
-0.42574159
-0.31719674
-0.19566582
-0.06612432
0.06612432
0.19566582
0.31719674
0.42574159
0.51685653
0.5868113
0.63274195
0.65276807
0.64606978
0.61292133
0.5546798
0.47372961
0.37338488
0.25775373
0.13157011
0
0
-0.15972805
-0.31291681
-0.45329472
-0.57511469
-0.6733894
-0.74409547
-0.78433818
-0.79247
-0.768158
-0.71239752
-0.6274714
-0.51685653
-0.38508149
-0.23754118
-0.080275893
0.080275893
0.23754118
0.38508149
0.51685653
0.6274714
0.71239752
0.768158
0.79247
0.78433818
0.74409547
0.6733894
0.57511469
0.45329472
0.31291681
0.15972805
0
0
-0.18134669
-0.35526903
-0.51464662
-0.65295451
-0.76453036
-0.84480626
-0.89049568
-0.89972811
-0.87212556
-0.80881809
-0.71239752
-0.5868113
-0.43720096
-0.26969156
-0.091140962
0.091140962
0.26969156
0.43720096
0.5868113
0.71239752
0.80881809
0.87212556
0.89972811
0.89049568
0.84480626
0.76453036
0.65295451
0.51464662
0.35526903
0.18134669
0
0
-0.19554099
-0.3830765
-0.55492882
-0.70406229
-0.82437136
-0.91093058
-0.96019619
-0.97015125
-0.94038821
-0.87212556
-0.768158
-0.63274195
-0.47142137
-0.29080075
-0.098274709
0.098274709
0.29080075
0.47142137
0.63274195
0.768158
0.87212556
0.94038821
0.97015125
0.96019619
0.91093058
0.82437136
0.70406229
0.55492882
0.3830765
0.19554099
0
0
-0.20172981
-0.39520077
-0.57249217
-0.72634568
-0.8504625
-0.93976129
-0.99058614
-1.0008563
-0.97015125
-0.89972811
-0.79247
-0.65276807
-0.48634174
-0.30000452
-0.10138508
0.10138508
0.30000452
0.48634174
0.65276807
0.79247
0.89972811
0.97015125
1.0008563
0.99058614
0.93976129
0.8504625
0.72634568
0.57249217
0.39520077
0.20172981
0
0
-0.19965979
-0.39114548
-0.56661763
-0.71889239
-0.8417356
-0.93011807
-0.98042139
-0.99058614
-0.96019619
-0.89049568
-0.78433818
-0.64606978
-0.48135121
-0.29692606
-0.10034473
0.10034473
0.29692606
0.48135121
0.64606978
0.78433818
0.89049568
0.96019619
0.99058614
0.98042139
0.93011807
0.8417356
0.71889239
0.56661763
0.39114548
0.19965979
0
0
-0.18941567
-0.37107664
-0.53754569
-0.68200756
-0.79854795
-0.8823957
-0.93011807
-0.93976129
-0.91093058
-0.84480626
-0.74409547
-0.61292133
-0.45665411
-0.28169142
-0.095196257
0.095196257
0.28169142
0.45665411
0.61292133
0.74409547
0.84480626
0.91093058
0.93976129
0.93011807
0.8823957
0.79854795
0.68200756
0.53754569
0.37107664
0.18941567
0
0
-0.17141686
-0.33581588
-0.48646657
-0.61720126
-0.72266766
-0.79854795
-0.8417356
-0.8504625
-0.82437136
-0.76453036
-0.6733894
-0.5546798
-0.41326154
-0.2549243
-0.086150438
0.086150438
0.2549243
0.41326154
0.5546798
0.6733894
0.76453036
0.82437136
0.8504625
0.8417356
0.79854795
0.72266766
0.61720126
0.48646657
0.33581588
0.17141686
0
0
-0.14640021
-0.28680678
-0.41547145
-0.52712667
-0.61720126
-0.68200756
-0.71889239
-0.72634568
-0.70406229
-0.65295451
-0.57511469
-0.47372961
-0.35294999
-0.21772055
-0.07357761
0.07357761
0.21772055
0.35294999
0.47372961
0.57511469
0.65295451
0.70406229
0.72634568
0.71889239
0.68200756
0.61720126
0.52712667
0.41547145
0.28680678
0.14640021
0
0
-0.11538993
-0.22605578
-0.32746688
-0.41547145
-0.48646657
-0.53754569
-0.56661763
-0.57249217
-0.55492882
-0.51464662
-0.45329472
-0.37338488
-0.27818863
-0.1716033
-0.057992505
0.057992505
0.1716033
0.27818863
0.37338488
0.45329472
0.51464662
0.55492882
0.57249217
0.56661763
0.53754569
0.48646657
0.41547145
0.32746688
0.22605578
0.11538993
0
0
-0.079655568
-0.15605003
-0.22605578
-0.28680678
-0.33581588
-0.37107664
-0.39114548
-0.39520077
-0.3830765
-0.35526903
-0.31291681
-0.25775373
-0.19203819
-0.11846058
-0.040033181
0.040033181
0.11846058
0.19203819
0.25775373
0.31291681
0.35526903
0.3830765
0.39520077
0.39114548
0.37107664
0.33581588
0.28680678
0.22605578
0.15605003
0.079655568
0
0
-0.040660099
-0.079655568
-0.11538993
-0.14640021
-0.17141686
-0.18941567
-0.19965979
-0.20172981
-0.19554099
-0.18134669
-0.15972805
-0.13157011
-0.098025687
-0.060468076
-0.020434894
0.020434894
0.060468076
0.098025687
0.13157011
0.15972805
0.18134669
0.19554099
0.20172981
0.19965979
0.18941567
0.17141686
0.14640021
0.11538993
0.079655568
0.040660099
0
0
0
0
0
0
0
0
0
0
0
0
0
0
0
0
0
0
0
0
0
0
0
0
0
0
0
0
0
0
0
0
0
