# vtk DataFile Version 3.0
vtk output
ASCII
DATASET STRUCTURED_GRID
DIMENSIONS 8 8 1
POINTS 64 float
0 0 0
0 0.125 0
0 0.25 0
0 0.375 0
0 0.5 0
0 0.625 0
0 0.75 0
0 0.875 0
0.125 0 0
0.125 0.125 0
0.125 0.25 0
0.125 0.375 0
0.125 0.5 0
0.125 0.625 0
0.125 0.75 0
0.125 0.875 0
0.25 0 0
0.25 0.125 0
0.25 0.25 0
0.25 0.375 0
0.25 0.5 0
0.25 0.625 0
0.25 0.75 0
0.25 0.875 0
0.375 0 0
0.375 0.125 0
0.375 0.25 0
0.375 0.375 0
0.375 0.5 0
0.375 0.625 0
0.375 0.75 0
0.375 0.875 0
0.5 0 0
0.5 0.125 0
0.5 0.25 0
0.5 0.375 0
0.5 0.5 0
0.5 0.625 0
0.5 0.75 0
0.5 0.875 0
0.625 0 0
0.625 0.125 0
0.625 0.25 0
0.625 0.375 0
0.625 0.5 0
0.625 0.625 0
0.625 0.75 0
0.625 0.875 0
0.75 0 0
0.75 0.125 0
0.75 0.25 0
0.75 0.375 0
0.75 0.5 0
0.75 0.625 0
0.75 0.75 0
0.75 0.875 0
0.875 0 0
0.875 0.125 0
0.875 0.25 0
0.875 0.375 0
0.875 0.5 0
0.875 0.625 0
0.875 0.75 0
0.875 0.875 0


POINT_DATA 64
SCALARS values float
LOOKUP_TABLE default
0
0
0
0
0
0
0
0
0
0.65400825
0.81553495
0.3629472
-0.3629472
-0.81553495
-0.65400825
0
0
0.81553495
1.0169554
0.45258775
-0.45258775
-1.0169554
-0.81553495
0
0
0.3629472
0.45258775
0.2014205
-0.2014205
-0.45258775
-0.3629472
0
0
-0.3629472
-0.45258775
-0.2014205
0.2014205
0.45258775
0.3629472
0
0
-0.81553495
-1.0169554
-0.45258775
0.45258775
1.0169554
0.81553495
0
0
-0.65400825
-0.81553495
-0.3629472
0.3629472
0.81553495
0.65400825
0
0
0
0
0
0
0
0
0
