# vtk DataFile Version 3.0
vtk output
ASCII
DATASET STRUCTURED_GRID
DIMENSIONS 128 128 1
POINTS 16384 float
0 0 0
0 0.0078125 0
0 0.015625 0
0 0.0234375 0
0 0.03125 0
0 0.0390625 0
0 0.046875 0
0 0.0546875 0
0 0.0625 0
0 0.0703125 0
0 0.078125 0
0 0.0859375 0
0 0.09375 0
0 0.1015625 0
0 0.109375 0
0 0.1171875 0
0 0.125 0
0 0.1328125 0
0 0.140625 0
0 0.1484375 0
0 0.15625 0
0 0.1640625 0
0 0.171875 0
0 0.1796875 0
0 0.1875 0
0 0.1953125 0
0 0.203125 0
0 0.2109375 0
0 0.21875 0
0 0.2265625 0
0 0.234375 0
0 0.2421875 0
0 0.25 0
0 0.2578125 0
0 0.265625 0
0 0.2734375 0
0 0.28125 0
0 0.2890625 0
0 0.296875 0
0 0.3046875 0
0 0.3125 0
0 0.3203125 0
0 0.328125 0
0 0.3359375 0
0 0.34375 0
0 0.3515625 0
0 0.359375 0
0 0.3671875 0
0 0.375 0
0 0.3828125 0
0 0.390625 0
0 0.3984375 0
0 0.40625 0
0 0.4140625 0
0 0.421875 0
0 0.4296875 0
0 0.4375 0
0 0.4453125 0
0 0.453125 0
0 0.4609375 0
0 0.46875 0
0 0.4765625 0
0 0.484375 0
0 0.4921875 0
0 0.5 0
0 0.5078125 0
0 0.515625 0
0 0.5234375 0
0 0.53125 0
0 0.5390625 0
0 0.546875 0
0 0.5546875 0
0 0.5625 0
0 0.5703125 0
0 0.578125 0
0 0.5859375 0
0 0.59375 0
0 0.6015625 0
0 0.609375 0
0 0.6171875 0
0 0.625 0
0 0.6328125 0
0 0.640625 0
0 0.6484375 0
0 0.65625 0
0 0.6640625 0
0 0.671875 0
0 0.6796875 0
0 0.6875 0
0 0.6953125 0
0 0.703125 0
0 0.7109375 0
0 0.71875 0
0 0.7265625 0
0 0.734375 0
0 0.7421875 0
0 0.75 0
0 0.7578125 0
0 0.765625 0
0 0.7734375 0
0 0.78125 0
0 0.7890625 0
0 0.796875 0
0 0.8046875 0
0 0.8125 0
0 0.8203125 0
0 0.828125 0
0 0.8359375 0
0 0.84375 0
0 0.8515625 0
0 0.859375 0
0 0.8671875 0
0 0.875 0
0 0.8828125 0
0 0.890625 0
0 0.8984375 0
0 0.90625 0
0 0.9140625 0
0 0.921875 0
0 0.9296875 0
0 0.9375 0
0 0.9453125 0
0 0.953125 0
0 0.9609375 0
0 0.96875 0
0 0.9765625 0
0 0.984375 0
0 0.9921875 0
0.0078125 0 0
0.0078125 0.0078125 0
0.0078125 0.015625 0
0.0078125 0.0234375 0
0.0078125 0.03125 0
0.0078125 0.0390625 0
0.0078125 0.046875 0
0.0078125 0.0546875 0
0.0078125 0.0625 0
0.0078125 0.0703125 0
0.0078125 0.078125 0
0.0078125 0.0859375 0
0.0078125 0.09375 0
0.0078125 0.1015625 0
0.0078125 0.109375 0
0.0078125 0.1171875 0
0.0078125 0.125 0
0.0078125 0.1328125 0
0.0078125 0.140625 0
0.0078125 0.1484375 0
0.0078125 0.15625 0
0.0078125 0.1640625 0
0.0078125 0.171875 0
0.0078125 0.1796875 0
0.0078125 0.1875 0
0.0078125 0.1953125 0
0.0078125 0.203125 0
0.0078125 0.2109375 0
0.0078125 0.21875 0
0.0078125 0.2265625 0
0.0078125 0.234375 0
0.0078125 0.2421875 0
0.0078125 0.25 0
0.0078125 0.2578125 0
0.0078125 0.265625 0
0.0078125 0.2734375 0
0.0078125 0.28125 0
0.0078125 0.2890625 0
0.0078125 0.296875 0
0.0078125 0.3046875 0
0.0078125 0.3125 0
0.0078125 0.3203125 0
0.0078125 0.328125 0
0.0078125 0.3359375 0
0.0078125 0.34375 0
0.0078125 0.3515625 0
0.0078125 0.359375 0
0.0078125 0.3671875 0
0.0078125 0.375 0
0.0078125 0.3828125 0
0.0078125 0.390625 0
0.0078125 0.3984375 0
0.0078125 0.40625 0
0.0078125 0.4140625 0
0.0078125 0.421875 0
0.0078125 0.4296875 0
0.0078125 0.4375 0
0.0078125 0.4453125 0
0.0078125 0.453125 0
0.0078125 0.4609375 0
0.0078125 0.46875 0
0.0078125 0.4765625 0
0.0078125 0.484375 0
0.0078125 0.4921875 0
0.0078125 0.5 0
0.0078125 0.5078125 0
0.0078125 0.515625 0
0.0078125 0.5234375 0
0.0078125 0.53125 0
0.0078125 0.5390625 0
0.0078125 0.546875 0
0.0078125 0.5546875 0
0.0078125 0.5625 0
0.0078125 0.5703125 0
0.0078125 0.578125 0
0.0078125 0.5859375 0
0.0078125 0.59375 0
0.0078125 0.6015625 0
0.0078125 0.609375 0
0.0078125 0.6171875 0
0.0078125 0.625 0
0.0078125 0.6328125 0
0.0078125 0.640625 0
0.0078125 0.6484375 0
0.0078125 0.65625 0
0.0078125 0.6640625 0
0.0078125 0.671875 0
0.0078125 0.6796875 0
0.0078125 0.6875 0
0.0078125 0.6953125 0
0.0078125 0.703125 0
0.0078125 0.7109375 0
0.0078125 0.71875 0
0.0078125 0.7265625 0
0.0078125 0.734375 0
0.0078125 0.7421875 0
0.0078125 0.75 0
0.0078125 0.7578125 0
0.0078125 0.765625 0
0.0078125 0.7734375 0
0.0078125 0.78125 0
0.0078125 0.7890625 0
0.0078125 0.796875 0
0.0078125 0.8046875 0
0.0078125 0.8125 0
0.0078125 0.8203125 0
0.0078125 0.828125 0
0.0078125 0.8359375 0
0.0078125 0.84375 0
0.0078125 0.8515625 0
0.0078125 0.859375 0
0.0078125 0.8671875 0
0.0078125 0.875 0
0.0078125 0.8828125 0
0.0078125 0.890625 0
0.0078125 0.8984375 0
0.0078125 0.90625 0
0.0078125 0.9140625 0
0.0078125 0.921875 0
0.0078125 0.9296875 0
0.0078125 0.9375 0
0.0078125 0.9453125 0
0.0078125 0.953125 0
0.0078125 0.9609375 0
0.0078125 0.96875 0
0.0078125 0.9765625 0
0.0078125 0.984375 0
0.0078125 0.9921875 0
0.015625 0 0
0.015625 0.0078125 0
0.015625 0.015625 0
0.015625 0.0234375 0
0.015625 0.03125 0
0.015625 0.0390625 0
0.015625 0.046875 0
0.015625 0.0546875 0
0.015625 0.0625 0
0.015625 0.0703125 0
0.015625 0.078125 0
0.015625 0.0859375 0
0.015625 0.09375 0
0.015625 0.1015625 0
0.015625 0.109375 0
0.015625 0.1171875 0
0.015625 0.125 0
0.015625 0.1328125 0
0.015625 0.140625 0
0.015625 0.1484375 0
0.015625 0.15625 0
0.015625 0.1640625 0
0.015625 0.171875 0
0.015625 0.1796875 0
0.015625 0.1875 0
0.015625 0.1953125 0
0.015625 0.203125 0
0.015625 0.2109375 0
0.015625 0.21875 0
0.015625 0.2265625 0
0.015625 0.234375 0
0.015625 0.2421875 0
0.015625 0.25 0
0.015625 0.2578125 0
0.015625 0.265625 0
0.015625 0.2734375 0
0.015625 0.28125 0
0.015625 0.2890625 0
0.015625 0.296875 0
0.015625 0.3046875 0
0.015625 0.3125 0
0.015625 0.3203125 0
0.015625 0.328125 0
0.015625 0.3359375 0
0.015625 0.34375 0
0.015625 0.3515625 0
0.015625 0.359375 0
0.015625 0.3671875 0
0.015625 0.375 0
0.015625 0.3828125 0
0.015625 0.390625 0
0.015625 0.3984375 0
0.015625 0.40625 0
0.015625 0.4140625 0
0.015625 0.421875 0
0.015625 0.4296875 0
0.015625 0.4375 0
0.015625 0.4453125 0
0.015625 0.453125 0
0.015625 0.4609375 0
0.015625 0.46875 0
0.015625 0.4765625 0
0.015625 0.484375 0
0.015625 0.4921875 0
0.015625 0.5 0
0.015625 0.5078125 0
0.015625 0.515625 0
0.015625 0.5234375 0
0.015625 0.53125 0
0.015625 0.5390625 0
0.015625 0.546875 0
0.015625 0.5546875 0
0.015625 0.5625 0
0.015625 0.5703125 0
0.015625 0.578125 0
0.015625 0.5859375 0
0.015625 0.59375 0
0.015625 0.6015625 0
0.015625 0.609375 0
0.015625 0.6171875 0
0.015625 0.625 0
0.015625 0.6328125 0
0.015625 0.640625 0
0.015625 0.6484375 0
0.015625 0.65625 0
0.015625 0.6640625 0
0.015625 0.671875 0
0.015625 0.6796875 0
0.015625 0.6875 0
0.015625 0.6953125 0
0.015625 0.703125 0
0.015625 0.7109375 0
0.015625 0.71875 0
0.015625 0.7265625 0
0.015625 0.734375 0
0.015625 0.7421875 0
0.015625 0.75 0
0.015625 0.7578125 0
0.015625 0.765625 0
0.015625 0.7734375 0
0.015625 0.78125 0
0.015625 0.7890625 0
0.015625 0.796875 0
0.015625 0.8046875 0
0.015625 0.8125 0
0.015625 0.8203125 0
0.015625 0.828125 0
0.015625 0.8359375 0
0.015625 0.84375 0
0.015625 0.8515625 0
0.015625 0.859375 0
0.015625 0.8671875 0
0.015625 0.875 0
0.015625 0.8828125 0
0.015625 0.890625 0
0.015625 0.8984375 0
0.015625 0.90625 0
0.015625 0.9140625 0
0.015625 0.921875 0
0.015625 0.9296875 0
0.015625 0.9375 0
0.015625 0.9453125 0
0.015625 0.953125 0
0.015625 0.9609375 0
0.015625 0.96875 0
0.015625 0.9765625 0
0.015625 0.984375 0
0.015625 0.9921875 0
0.0234375 0 0
0.0234375 0.0078125 0
0.0234375 0.015625 0
0.0234375 0.0234375 0
0.0234375 0.03125 0
0.0234375 0.0390625 0
0.0234375 0.046875 0
0.0234375 0.0546875 0
0.0234375 0.0625 0
0.0234375 0.0703125 0
0.0234375 0.078125 0
0.0234375 0.0859375 0
0.0234375 0.09375 0
0.0234375 0.1015625 0
0.0234375 0.109375 0
0.0234375 0.1171875 0
0.0234375 0.125 0
0.0234375 0.1328125 0
0.0234375 0.140625 0
0.0234375 0.1484375 0
0.0234375 0.15625 0
0.0234375 0.1640625 0
0.0234375 0.171875 0
0.0234375 0.1796875 0
0.0234375 0.1875 0
0.0234375 0.1953125 0
0.0234375 0.203125 0
0.0234375 0.2109375 0
0.0234375 0.21875 0
0.0234375 0.2265625 0
0.0234375 0.234375 0
0.0234375 0.2421875 0
0.0234375 0.25 0
0.0234375 0.2578125 0
0.0234375 0.265625 0
0.0234375 0.2734375 0
0.0234375 0.28125 0
0.0234375 0.2890625 0
0.0234375 0.296875 0
0.0234375 0.3046875 0
0.0234375 0.3125 0
0.0234375 0.3203125 0
0.0234375 0.328125 0
0.0234375 0.3359375 0
0.0234375 0.34375 0
0.0234375 0.3515625 0
0.0234375 0.359375 0
0.0234375 0.3671875 0
0.0234375 0.375 0
0.0234375 0.3828125 0
0.0234375 0.390625 0
0.0234375 0.3984375 0
0.0234375 0.40625 0
0.0234375 0.4140625 0
0.0234375 0.421875 0
0.0234375 0.4296875 0
0.0234375 0.4375 0
0.0234375 0.4453125 0
0.0234375 0.453125 0
0.0234375 0.4609375 0
0.0234375 0.46875 0
0.0234375 0.4765625 0
0.0234375 0.484375 0
0.0234375 0.4921875 0
0.0234375 0.5 0
0.0234375 0.5078125 0
0.0234375 0.515625 0
0.0234375 0.5234375 0
0.0234375 0.53125 0
0.0234375 0.5390625 0
0.0234375 0.546875 0
0.0234375 0.5546875 0
0.0234375 0.5625 0
0.0234375 0.5703125 0
0.0234375 0.578125 0
0.0234375 0.5859375 0
0.0234375 0.59375 0
0.0234375 0.6015625 0
0.0234375 0.609375 0
0.0234375 0.6171875 0
0.0234375 0.625 0
0.0234375 0.6328125 0
0.0234375 0.640625 0
0.0234375 0.6484375 0
0.0234375 0.65625 0
0.0234375 0.6640625 0
0.0234375 0.671875 0
0.0234375 0.6796875 0
0.0234375 0.6875 0
0.0234375 0.6953125 0
0.0234375 0.703125 0
0.0234375 0.7109375 0
0.0234375 0.71875 0
0.0234375 0.7265625 0
0.0234375 0.734375 0
0.0234375 0.7421875 0
0.0234375 0.75 0
0.0234375 0.7578125 0
0.0234375 0.765625 0
0.0234375 0.7734375 0
0.0234375 0.78125 0
0.0234375 0.7890625 0
0.0234375 0.796875 0
0.0234375 0.8046875 0
0.0234375 0.8125 0
0.0234375 0.8203125 0
0.0234375 0.828125 0
0.0234375 0.8359375 0
0.0234375 0.84375 0
0.0234375 0.8515625 0
0.0234375 0.859375 0
0.0234375 0.8671875 0
0.0234375 0.875 0
0.0234375 0.8828125 0
0.0234375 0.890625 0
0.0234375 0.8984375 0
0.0234375 0.90625 0
0.0234375 0.9140625 0
0.0234375 0.921875 0
0.0234375 0.9296875 0
0.0234375 0.9375 0
0.0234375 0.9453125 0
0.0234375 0.953125 0
0.0234375 0.9609375 0
0.0234375 0.96875 0
0.0234375 0.9765625 0
0.0234375 0.984375 0
0.0234375 0.9921875 0
0.03125 0 0
0.03125 0.0078125 0
0.03125 0.015625 0
0.03125 0.0234375 0
0.03125 0.03125 0
0.03125 0.0390625 0
0.03125 0.046875 0
0.03125 0.0546875 0
0.03125 0.0625 0
0.03125 0.0703125 0
0.03125 0.078125 0
0.03125 0.0859375 0
0.03125 0.09375 0
0.03125 0.1015625 0
0.03125 0.109375 0
[...]
POINT_DATA 16384
SCALARS values float
LOOKUP_TABLE default
0
0
0
0
0
0
0
0
0
0
0
0
0
0
0
0
0
0
0
0
0
0
0
0
0
0
0
0
0
0
0
0
0
0
0
0
0
0
0
0
0
0
0
0
0
0
0
0
0
0
0
0
0
0
0
0
0
0
0
0
0
0
0
0
0
0
0
0
0
0
0
0
0
0
0
0
0
0
0
0
0
0
0
0
0
0
0
0
0
0
0
0
0
0
0
0
0
0
0
0
0
0
0
0
0
0
0
0
0
0
0
0
0
0
0
0
0
0
0
0
0
0
0
0
0
0
0
0
0
0.0024461693
0.0048863525
0.0073145779
0.0097249033
0.01211143
0.014468318
0.0167898
0.019070195
0.021303921
0.023485513
0.025609633
0.027671081
0.029664813
0.031585951
0.033429792
0.035191825
0.036867738
0.038453429
0.039945019
0.041338856
0.04263153
0.043819878
0.044900991
0.045872223
0.046731199
0.047475816
0.048104251
0.048614967
0.049006715
0.049278534
0.049429761
0.049460025
0.049369252
0.049157664
0.048825779
0.048374409
0.047804659
0.047117923
0.046315881
0.045400497
0.04437401
0.043238932
0.041998042
0.040654375
0.03921122
0.037672109
0.036040808
0.034321309
0.03251782
0.030634754
0.02867672
0.026648509
0.024555085
0.022401571
0.020193236
0.017935485
0.015633842
0.013293942
0.010921508
0.0085223479
0.0061023321
0.0036673829
0.001223459
-0.001223459
-0.0036673829
-0.0061023321
-0.0085223479
-0.010921508
-0.013293942
-0.015633842
-0.017935485
-0.020193236
-0.022401571
-0.024555085
-0.026648509
-0.02867672
-0.030634754
-0.03251782
-0.034321309
-0.036040808
-0.037672109
-0.03921122
-0.040654375
-0.041998042
-0.043238932
-0.04437401
-0.045400497
-0.046315881
-0.047117923
-0.047804659
-0.048374409
-0.048825779
-0.049157664
-0.049369252
-0.049460025
-0.049429761
-0.049278534
-0.049006715
-0.048614967
-0.048104251
-0.047475816
-0.046731199
-0.045872223
-0.044900991
-0.043819878
-0.04263153
-0.041338856
-0.039945019
-0.038453429
-0.036867738
-0.035191825
-0.033429792
-0.031585951
-0.029664813
-0.027671081
-0.025609633
-0.023485513
-0.021303921
-0.019070195
-0.0167898
-0.014468318
-0.01211143
-0.0097249033
-0.0073145779
-0.0048863525
-0.0024461693
0
0
0.0048863525
0.0097607472
0.014611256
0.019426008
0.024193222
0.028901231
0.033538513
0.038093722
0.042555708
0.046913554
0.051156594
0.055274446
0.059257031
0.063094605
0.066777776
0.07029753
0.073645255
0.076812757
0.079792285
0.082576549
0.085158734
0.087532521
0.089692101
0.09163219
0.093348039
0.09483545
0.096090783
0.097110966
0.097893502
0.098436476
0.098738559
0.098799013
0.098617689
0.098195031
0.097532073
0.096630438
0.095492332
0.09412054
0.09251842
0.090689891
0.088639429
0.086372052
0.083893308
0.081209262
0.078326484
0.075252029
0.071993418
0.068558628
0.064956063
0.06119454
0.057283264
0.053231806
0.04905008
0.044748321
0.040337056
0.035827078
0.031229426
0.026555351
0.021816289
0.01702384
0.012189731
0.0073257911
0.0024439239
-0.0024439239
-0.0073257911
-0.012189731
-0.01702384
-0.021816289
-0.026555351
-0.031229426
-0.035827078
-0.040337056
-0.044748321
-0.04905008
-0.053231806
-0.057283264
-0.06119454
-0.064956063
-0.068558628
-0.071993418
-0.075252029
-0.078326484
-0.081209262
-0.083893308
-0.086372052
-0.088639429
-0.090689891
-0.09251842
-0.09412054
-0.095492332
-0.096630438
-0.097532073
-0.098195031
-0.098617689
-0.098799013
-0.098738559
-0.098436476
-0.097893502
-0.097110966
-0.096090783
-0.09483545
-0.093348039
-0.09163219
-0.089692101
-0.087532521
-0.085158734
-0.082576549
-0.079792285
-0.076812757
-0.073645255
-0.07029753
-0.066777776
-0.063094605
-0.059257031
-0.055274446
-0.051156594
-0.046913554
-0.042555708
-0.038093722
-0.033538513
-0.028901231
-0.024193222
-0.019426008
-0.014611256
-0.0097607472
-0.0048863525
0
0
0.0073145779
0.014611256
0.021872177
0.029079574
0.036215808
0.043263417
0.050205152
0.057024027
0.063703354
0.070226789
0.076578367
0.082742545
0.088704238
0.094448856
0.099962343
0.10523121
0.11024255
0.11498411
0.11944429
0.12361216
0.12747754
0.13103096
0.13426372
0.13716792
0.13973644
0.14196301
0.14384216
0.14536932
0.14654073
0.14735353
0.14780573
0.14789622
0.14762479
0.1469921
0.14599969
0.14465
0.14294632
0.14089283
0.13849455
0.13575735
0.13268793
0.1292938
0.12558327
0.12156542
0.11725007
0.11264779
0.10776985
0.10262817
0.097235348
0.091604573
0.085749626
0.079684835
0.073425042
0.066985565
0.060382164
0.053630997
0.046748587
0.039751774
0.032657683
0.025483672
0.018247299
0.010966272
0.0036584082
-0.0036584082
-0.010966272
-0.018247299
-0.025483672
-0.032657683
-0.039751774
-0.046748587
-0.053630997
-0.060382164
-0.066985565
-0.073425042
-0.079684835
-0.085749626
-0.091604573
-0.097235348
-0.10262817
-0.10776985
-0.11264779
-0.11725007
-0.12156542
-0.12558327
-0.1292938
-0.13268793
-0.13575735
-0.13849455
-0.14089283
-0.14294632
-0.14465
-0.14599969
-0.1469921
-0.14762479
-0.14789622
-0.14780573
-0.14735353
-0.14654073
-0.14536932
-0.14384216
-0.14196301
-0.13973644
-0.13716792
-0.13426372
-0.13103096
-0.12747754
-0.12361216
-0.11944429
-0.11498411
-0.11024255
-0.10523121
-0.099962343
-0.094448856
-0.088704238
-0.082742545
-0.076578367
-0.070226789
-0.063703354
-0.057024027
-0.050205152
-0.043263417
-0.036215808
-0.029079574
-0.021872177
-0.014611256
-0.0073145779
0
0
0.0097249033
0.019426008
0.029079574
0.038661978
0.048149769
0.05751973
0.06674893
0.075814784
0.084695107
0.093368167
0.10181274
0.11000816
0.11793437
0.12557198
0.13290229
0.13990736
0.14657006
0.15287408
0.15880399
0.16434528
0.16948439
0.17420874
0.17850677
0.18236797
0.18578288
0.18874316
0.19124154
0.19327193
0.19482934
0.19590998
0.19651119
0.19663151
0.19627063
0.19542945
0.19411002
0.19231557
0.19005049
0.18732033
0.18413176
0.18049259
0.17641173
0.17189915
0.16696591
0.16162408
0.15588673
0.14976789
0.14328255
0.13644657
0.12927668
0.12179043
0.11400614
0.10594286
0.097620319
0.089058884
0.080279507
0.071303672
0.062153345
0.052850919
0.043419157
0.033881142
0.024260213
0.014579916
0.0048639397
-0.0048639397
-0.014579916
-0.024260213
-0.033881142
-0.043419157
-0.052850919
-0.062153345
-0.071303672
-0.080279507
-0.089058884
-0.097620319
-0.10594286
-0.11400614
-0.12179043
-0.12927668
-0.13644657
-0.14328255
-0.14976789
-0.15588673
-0.16162408
-0.16696591
-0.17189915
-0.17641173
-0.18049259
-0.18413176
-0.18732033
-0.19005049
-0.19231557
-0.19411002
-0.19542945
-0.19627063
-0.19663151
-0.19651119
-0.19590998
-0.19482934
-0.19327193
-0.19124154
-0.18874316
-0.18578288
-0.18236797
-0.17850677
-0.17420874
-0.16948439
-0.16434528
-0.15880399
-0.15287408
-0.14657006
-0.13990736
-0.13290229
-0.12557198
-0.11793437
-0.11000816
-0.10181274
-0.093368167
-0.084695107
-0.075814784
-0.06674893
-0.05751973
-0.048149769
-0.038661978
-0.029079574
-0.019426008
-0.0097249033
0
0
0.01211143
0.024193222
0.036215808
0.048149769
0.059965899
0.071635282
0.083129362
0.09442001
0.1054796
0.11628106
0.12679796
0.13700456
0.1468759
0.1563878
0.16551699
0.17424114
0.18253889
0.19038994
0.19777507
0.20467621
0.21107648
0.2169602
0.22231299
0.22712174
0.23137469
0.23506142
0.23817292
0.24070157
0.24264118
0.24398701
0.24473576
0.2448856
0.24443617
0.24338856
0.24174533
0.23951052
0.23668958
0.23328943
0.22931837
0.22478614
0.21970381
0.21408384
0.20793996
0.20128722
0.1941419
0.18652148
0.17844461
0.16993106
0.16100165
0.15167825
0.14198367
0.13194163
0.1215767
0.11091426
0.099980392
0.088801855
0.077406004
0.065820728
0.054074378
0.042195698
0.030213759
0.018157881
0.0060575684
-0.0060575684
-0.018157881
-0.030213759
-0.042195698
-0.054074378
-0.065820728
-0.077406004
-0.088801855
-0.099980392
-0.11091426
-0.1215767
-0.13194163
-0.14198367
-0.15167825
-0.16100165
-0.16993106
-0.17844461
-0.18652148
-0.1941419
-0.20128722
-0.20793996
-0.21408384
-0.21970381
-0.22478614
-0.22931837
-0.23328943
-0.23668958
-0.23951052
-0.24174533
-0.24338856
-0.24443617
-0.2448856
-0.24473576
-0.24398701
-0.24264118
-0.24070157
-0.23817292
-0.23506142
-0.23137469
-0.22712174
-0.22231299
-0.2169602
-0.21107648
-0.20467621
-0.19777507
-0.19038994
-0.18253889
-0.17424114
-0.16551699
-0.1563878
-0.1468759
-0.13700456
-0.12679796
-0.11628106
-0.1054796
-0.09442001
-0.083129362
-0.071635282
-0.059965899
-0.048149769
-0.036215808
-0.024193222
-0.01211143
0
0
0.014468318
0.028901231
0.043263417
0.05751973
0.071635282
0.085575531
0.099306363
0.11279418
0.12600596
0.13890939
0.15147288
0.1636657
0.17545799
0.18682092
0.19772666
0.20814852
0.21806102
0.22743988
0.23626216
0.24450627
0.25215203
0.25918073
0.26557517
0.2713197
0.27640027
0.28080445
0.28452144
0.28754217
0.28985923
0.29146696
0.29236142
0.29254042
0.29200352
0.29075205
0.28878905
0.28611934
0.28274945
0.27868762
0.2739438
0.26852959
0.26245825
0.25574462
0.24840515
0.24045778
0.23192198
0.22281862
0.21316999
0.2029997
0.19233263
0.18119489
0.16961374
0.15761751
0.14523557
0.13249821
0.11943661
0.10608272
0.092469238
0.078629463
0.064597269
0.050406995
0.036093366
0.021691411
0.0072363732
-0.0072363732
-0.021691411
-0.036093366
-0.050406995
-0.064597269
-0.078629463
-0.092469238
-0.10608272
-0.11943661
-0.13249821
-0.14523557
-0.15761751
-0.16961374
-0.18119489
-0.19233263
-0.2029997
-0.21316999
-0.22281862
-0.23192198
-0.24045778
-0.24840515
-0.25574462
-0.26245825
-0.26852959
-0.2739438
-0.27868762
-0.28274945
-0.28611934
-0.28878905
-0.29075205
-0.29200352
-0.29254042
-0.29236142
-0.29146696
-0.28985923
-0.28754217
-0.28452144
-0.28080445
-0.27640027
-0.2713197
-0.26557517
-0.25918073
-0.25215203
-0.24450627
-0.23626216
-0.22743988
-0.21806102
-0.20814852
-0.19772666
-0.18682092
-0.17545799
-0.1636657
-0.15147288
-0.13890939
-0.12600596
-0.11279418
-0.099306363
-0.085575531
-0.071635282
-0.05751973
-0.043263417
-0.028901231
-0.014468318
0
0
0.0167898
0.033538513
0.050205152
0.06674893
0.083129362
0.099306363
0.11524034
0.13089231
0.14622397
0.16119779
0.17577713
0.18992631
0.20361072
0.21679685
0.22945245
0.24154653
0.25304951
0.26393324
0.27417108
0.28373798
0.29261052
0.30076699
0.30818744
0.3148537
0.32074947
0.3258603
0.3301737
0.33367911
0.33636795
0.33823364
0.33927162
0.33947934
0.3388563
0.33740402
0.33512606
0.33202798
0.32811738
0.32340383
0.31789884
0.31161591
0.3045704
0.29677955
0.28826244
0.2790399
0.2691345
0.25857049
0.24737371
0.23557156
0.22319293
0.21026811
0.19682873
0.18290768
0.16853902
0.15375792
0.13860054
0.12310399
0.10730618
0.091245779
0.07496208
0.058494937
0.041884647
0.025171858
0.0083974693
-0.0083974693
-0.025171858
-0.041884647
-0.058494937
-0.07496208
-0.091245779
-0.10730618
-0.12310399
-0.13860054
-0.15375792
-0.16853902
-0.18290768
-0.19682873
-0.21026811
-0.22319293
-0.23557156
-0.24737371
-0.25857049
-0.2691345
-0.2790399
-0.28826244
-0.29677955
-0.3045704
-0.31161591
-0.31789884
-0.32340383
-0.32811738
-0.33202798
-0.33512606
-0.33740402
-0.3388563
-0.33947934
-0.33927162
-0.33823364
-0.33636795
-0.33367911
-0.3301737
-0.3258603
-0.32074947
-0.3148537
-0.30818744
-0.30076699
-0.29261052
-0.28373798
-0.27417108
-0.26393324
-0.25304951
-0.24154653
-0.22945245
-0.21679685
-0.20361072
-0.18992631
-0.17577713
-0.16119779
-0.14622397
-0.13089231
-0.11524034
-0.099306363
-0.083129362
-0.06674893
-0.050205152
-0.033538513
-0.0167898
0
0
0.019070195
0.038093722
0.057024027
0.075814784
0.09442001
0.11279418
0.13089231
0.14867014
0.16608414
0.18309171
0.19965122
0.21572215
0.23126517
0.24624225
0.26061673
0.27435344
0.28741876
0.29978071
0.31140906
0.32227533
0.33235295
0.34161723
0.35004553
0.3576172
0.36431373
0.37011872
0.37501796
0.37899948
0.38205352
0.38417261
0.38535156
0.3855875
0.38487984
0.38323031
0.38064295
0.3771241
0.37268236
0.3673286
0.36107593
0.35393965
0.34593722
0.33708822
0.32741431
0.31693916
0.30568841
0.29368959
0.28097206
0.26756694
0.25350705
0.23882677
0.22356205
0.20775024
0.19143003
0.17464135
0.1574253
0.139824
0.12188053
0.1036388
0.085143446
0.066439732
0.047573429
0.028590705
0.0095380155
-0.0095380155
-0.028590705
-0.047573429
-0.066439732
-0.085143446
-0.1036388
-0.12188053
-0.139824
-0.1574253
-0.17464135
-0.19143003
-0.20775024
-0.22356205
-0.23882677
-0.25350705
-0.26756694
-0.28097206
-0.29368959
-0.30568841
-0.31693916
-0.32741431
-0.33708822
-0.34593722
-0.35393965
-0.36107593
-0.3673286
-0.37268236
-0.3771241
-0.38064295
-0.38323031
-0.38487984
-0.3855875
-0.38535156
-0.38417261
-0.38205352
-0.37899948
-0.37501796
-0.37011872
-0.36431373
-0.3576172
-0.35004553
-0.34161723
-0.33235295
-0.32227533
-0.31140906
-0.29978071
-0.28741876
-0.27435344
-0.26061673
-0.24624225
-0.23126517
-0.21572215
-0.19965122
-0.18309171
-0.16608414
-0.14867014
-0.13089231
-0.11279418
-0.09442001
-0.075814784
-0.057024027
-0.038093722
-0.019070195
0
0
0.021303921
0.042555708
0.063703354
0.084695107
0.1054796
0.12600596
0.14622397
0.16608414
0.18553787
0.20453757
0.22303672
0.24099007
0.25835368
0.27508505
0.29114324
0.30648895
0.32108464
0.33489457
0.34788497
0.36002403
0.37128205
0.38163148
0.391047
0.39950555
0.40698646
0.41347139
0.4189445
0.42339237
0.42680414
0.42917144
0.43048849
0.43075206
0.42996151
0.42811877
0.42522835
0.42129733
0.41633532
0.41035447
0.40336941
0.39539724
0.38645747
0.37657197
0.36576494
0.35406282
0.34149425
0.32808998
0.31388282
0.29890754
0.28320078
0.26680099
0.24974828
0.2320844
0.21385257
0.19509741
0.17586481
0.15620184
0.13615662
0.1157782
0.095116452
0.074221938
0.053145791
0.031939586
0.01065522
-0.01065522
-0.031939586
-0.053145791
-0.074221938
-0.095116452
-0.1157782
-0.13615662
-0.15620184
-0.17586481
-0.19509741
-0.21385257
-0.2320844
-0.24974828
-0.26680099
-0.28320078
-0.29890754
-0.31388282
-0.32808998
-0.34149425
-0.35406282
-0.36576494
-0.37657197
-0.38645747
-0.39539724
-0.40336941
-0.41035447
-0.41633532
-0.42129733
-0.42522835
-0.42811877
-0.42996151
-0.43075206
-0.43048849
-0.42917144
-0.42680414
-0.42339237
-0.4189445
-0.41347139
-0.40698646
-0.39950555
-0.391047
-0.38163148
-0.37128205
-0.36002403
-0.34788497
-0.33489457
-0.32108464
-0.30648895
-0.29114324
-0.27508505
-0.25835368
-0.24099007
-0.22303672
-0.20453757
-0.18553787
-0.16608414
-0.14622397
-0.12600596
-0.1054796
-0.084695107
-0.063703354
-0.042555708
-0.021303921
0
0
0.023485513
0.046913554
0.070226789
0.093368167
0.11628106
0.13890939
0.16119779
0.18309171
0.20453757
0.22548289
0.24587642
0.26566825
0.28480995
0.30325467
0.32095727
0.33787444
0.35396477
0.36918889
0.38350954
0.39689168
0.40930256
0.42071181
0.4310915
0.44041625
0.44866322
0.45581223
0.4618458
0.46674916
0.4705103
0.47312002
0.47457194
0.4748625
0.47399099
0.47195955
0.46877314
0.46443957
0.45896944
0.45237613
0.44467578
0.43588723
0.426032
0.41513419
0.40322048
0.39032003
0.37646439
0.36168748
0.34602547
0.32951667
0.31220148
0.29412229
0.27532333
0.25585061
0.23575179
0.21507603
0.19387395
0.17219743
0.15009951
0.12763427
0.10485669
0.081822511
0.058588096
0.035210306
0.01174635
-0.01174635
-0.035210306
-0.058588096
-0.081822511
-0.10485669
-0.12763427
-0.15009951
-0.17219743
-0.19387395
-0.21507603
-0.23575179
-0.25585061
-0.27532333
-0.29412229
-0.31220148
-0.32951667
-0.34602547
-0.36168748
-0.37646439
-0.39032003
-0.40322048
-0.41513419
-0.426032
-0.43588723
-0.44467578
-0.45237613
-0.45896944
-0.46443957
-0.46877314
-0.47195955
-0.47399099
-0.4748625
-0.47457194
-0.47312002
-0.4705103
-0.46674916
-0.4618458
-0.45581223
-0.44866322
-0.44041625
-0.4310915
-0.42071181
-0.40930256
-0.39689168
-0.38350954
-0.36918889
-0.35396477
-0.33787444
-0.32095727
-0.30325467
-0.28480995
-0.26566825
-0.24587642
-0.22548289
-0.20453757
-0.18309171
-0.16119779
-0.13890939
-0.11628106
-0.093368167
-0.070226789
-0.046913554
-0.023485513
0
0
0.025609633
0.051156594
0.076578367
0.10181274
0.12679796
0.15147288
0.17577713
0.19965122
0.22303672
0.24587642
0.26811442
0.2896963
0.31056924
0.33068217
0.34998587
0.36843309
0.38597869
0.40257973
0.4181956
0.43278807
0.44632144
0.45876259
0.47008106
0.48024917
0.48924203
0.49703763
0.50361689
0.50896372
0.51306504
0.51591079
0.51749403
0.51781087
0.51686054
0.51464537
0.51117077
0.50644525
0.50048038
0.49329075
0.48489395
0.47531053
0.46456395
0.45268051
0.43968928
0.42562205
0.41051326
0.39439987
0.37732132
0.35931941
0.34043817
0.32072383
0.30022462
0.27899072
0.25707407
0.23452833
0.21140865
0.18777162
0.16367508
0.139178
0.11434033
0.08922285
0.063887026
0.03839486
0.012808735
-0.012808735
-0.03839486
-0.063887026
-0.08922285
-0.11434033
-0.139178
-0.16367508
-0.18777162
-0.21140865
-0.23452833
-0.25707407
-0.27899072
-0.30022462
-0.32072383
-0.34043817
-0.35931941
-0.37732132
-0.39439987
-0.41051326
-0.42562205
-0.43968928
-0.45268051
-0.46456395
-0.47531053
-0.48489395
-0.49329075
-0.50048038
-0.50644525
-0.51117077
-0.51464537
-0.51686054
-0.51781087
-0.51749403
-0.51591079
-0.51306504
-0.50896372
-0.50361689
-0.49703763
-0.48924203
-0.48024917
-0.47008106
-0.45876259
-0.44632144
-0.43278807
-0.4181956
-0.40257973
-0.38597869
-0.36843309
-0.34998587
-0.33068217
-0.31056924
-0.2896963
-0.26811442
-0.24587642
-0.22303672
-0.19965122
-0.17577713
-0.15147288
-0.12679796
-0.10181274
-0.076578367
-0.051156594
-0.025609633
0
0
0.027671081
0.055274446
0.082742545
0.11000816
0.13700456
0.1636657
0.18992631
0.21572215
0.24099007
0.26566825
0.2896963
0.31301541
0.33556853
0.35730044
0.37815799
0.39809012
0.41704805
0.4349854
0.45185827
0.46762536
0.4822481
0.49569069
0.50792025
0.51890684
0.52862358
0.53704669
0.54415555
0.54993277
0.55436422
0.55743905
0.55914972
0.55949207
0.55846524
0.55607176
0.55231748
0.54721158
0.54076656
0.5329982
0.5239255
0.51357067
0.50195904
0.48911904
0.47508208
0.45988251
0.44355754
0.4261471
0.40769382
0.38824283
0.36784175
0.34654051
0.32439121
0.30144808
0.27776726
0.25340669
0.22842599
0.2028863
0.17685011
0.15038114
0.12354416
0.096404846
0.069029614
0.041485455
0.013839774
-0.013839774
-0.041485455
-0.069029614
-0.096404846
-0.12354416
-0.15038114
-0.17685011
-0.2028863
-0.22842599
-0.25340669
-0.27776726
-0.30144808
-0.32439121
-0.34654051
-0.36784175
-0.38824283
-0.40769382
-0.4261471
-0.44355754
-0.45988251
-0.47508208
-0.48911904
-0.50195904
-0.51357067
-0.5239255
-0.5329982
-0.54076656
-0.54721158
-0.55231748
-0.55607176
-0.55846524
-0.55949207
-0.55914972
-0.55743905
-0.55436422
-0.54993277
-0.54415555
-0.53704669
-0.52862358
-0.51890684
-0.50792025
-0.49569069
-0.4822481
-0.46762536
-0.45185827
-0.4349854
-0.41704805
-0.39809012
-0.37815799
-0.35730044
-0.33556853
-0.31301541
-0.2896963
-0.26566825
-0.24099007
-0.21572215
-0.18992631
-0.1636657
-0.13700456
-0.11000816
-0.082742545
-0.055274446
-0.027671081
0
0
0.029664813
0.059257031
0.088704238
0.11793437
0.1468759
0.17545799
0.20361072
0.23126517
0.25835368
0.28480995
0.31056924
0.33556853
0.35974661
0.38304434
0.40540469
0.42677296
0.44709683
0.46632659
0.48441516
0.50131829
0.51699461
0.53140576
0.54451647
0.55629466
0.5667115
0.5757415
0.58336257
0.58955605
0.59430678
0.59760315
0.59943709
0.5998041
0.59870329
0.59613735
0.59211257
0.58663878
0.5797294
0.57140132
0.56167492
0.55057401
0.53812575
0.52436061
0.50931227
0.49301756
0.47551636
0.45685148
0.43706861
0.41621616
0.39434516
0.37150914
0.34776396
0.32316776
0.2977807
0.27166493
0.24488434
0.21750449
0.18959236
0.16121627
0.13244565
0.10335092
0.074003275
0.044474529
0.014836946
-0.014836946
-0.044474529
-0.074003275
-0.10335092
-0.13244565
-0.16121627
-0.18959236
-0.21750449
-0.24488434
-0.27166493
-0.2977807
-0.32316776
-0.34776396
-0.37150914
-0.39434516
-0.41621616
-0.43706861
-0.45685148
-0.47551636
-0.49301756
-0.50931227
-0.52436061
-0.53812575
-0.55057401
-0.56167492
-0.57140132
-0.5797294
-0.58663878
-0.59211257
-0.59613735
-0.59870329
-0.5998041
-0.59943709
-0.59760315
-0.59430678
-0.58955605
-0.58336257
-0.5757415
-0.5667115
-0.55629466
-0.54451647
-0.53140576
-0.51699461
-0.50131829
-0.48441516
-0.46632659
-0.44709683
-0.42677296
-0.40540469
-0.38304434
-0.35974661
-0.33556853
-0.31056924
-0.28480995
-0.25835368
-0.23126517
-0.20361072
-0.17545799
-0.1468759
-0.11793437
-0.088704238
-0.059257031
-0.029664813
0
0
0.031585951
0.063094605
0.094448856
0.12557198
0.1563878
0.18682092
0.21679685
0.24624225
0.27508505
0.30325467
0.33068217
0.35730044
0.38304434
0.40785086
0.43165931
0.45441141
0.47605149
0.49652659
0.51578661
0.53378441
0.55047596
0.56582039
0.57978017
0.59232113
0.60341258
0.61302738
0.621142
0.62773658
0.63279498
0.63630483
0.63825753
0.63864831
0.63747621
0.6347441
0.63045866
0.62463039