# vtk DataFile Version 3.0
vtk output
ASCII
DATASET STRUCTURED_GRID
DIMENSIONS 16 16 1
POINTS 256 float
0 0 0
0 0.0625 0
0 0.125 0
0 0.1875 0
0 0.25 0
0 0.3125 0
0 0.375 0
0 0.4375 0
0 0.5 0
0 0.5625 0
0 0.625 0
0 0.6875 0
0 0.75 0
0 0.8125 0
0 0.875 0
0 0.9375 0
0.0625 0 0
0.0625 0.0625 0
0.0625 0.125 0
0.0625 0.1875 0
0.0625 0.25 0
0.0625 0.3125 0
0.0625 0.375 0
0.0625 0.4375 0
0.0625 0.5 0
0.0625 0.5625 0
0.0625 0.625 0
0.0625 0.6875 0
0.0625 0.75 0
0.0625 0.8125 0
0.0625 0.875 0
0.0625 0.9375 0
0.125 0 0
0.125 0.0625 0
0.125 0.125 0
0.125 0.1875 0
0.125 0.25 0
0.125 0.3125 0
0.125 0.375 0
0.125 0.4375 0
0.125 0.5 0
0.125 0.5625 0
0.125 0.625 0
0.125 0.6875 0
0.125 0.75 0
0.125 0.8125 0
0.125 0.875 0
0.125 0.9375 0
0.1875 0 0
0.1875 0.0625 0
0.1875 0.125 0
0.1875 0.1875 0
0.1875 0.25 0
0.1875 0.3125 0
0.1875 0.375 0
0.1875 0.4375 0
0.1875 0.5 0
0.1875 0.5625 0
0.1875 0.625 0
0.1875 0.6875 0
0.1875 0.75 0
0.1875 0.8125 0
0.1875 0.875 0
0.1875 0.9375 0
0.25 0 0
0.25 0.0625 0
0.25 0.125 0
0.25 0.1875 0
0.25 0.25 0
0.25 0.3125 0
0.25 0.375 0
0.25 0.4375 0
0.25 0.5 0
0.25 0.5625 0
0.25 0.625 0
0.25 0.6875 0
0.25 0.75 0
0.25 0.8125 0
0.25 0.875 0
0.25 0.9375 0
0.3125 0 0
0.3125 0.0625 0
0.3125 0.125 0
0.3125 0.1875 0
0.3125 0.25 0
0.3125 0.3125 0
0.3125 0.375 0
0.3125 0.4375 0
0.3125 0.5 0
0.3125 0.5625 0
0.3125 0.625 0
0.3125 0.6875 0
0.3125 0.75 0
0.3125 0.8125 0
0.3125 0.875 0
0.3125 0.9375 0
0.375 0 0
0.375 0.0625 0
0.375 0.125 0
0.375 0.1875 0
0.375 0.25 0
0.375 0.3125 0
0.375 0.375 0
0.375 0.4375 0
0.375 0.5 0
0.375 0.5625 0
0.375 0.625 0
0.375 0.6875 0
0.375 0.75 0
0.375 0.8125 0
0.375 0.875 0
0.375 0.9375 0
0.4375 0 0
0.4375 0.0625 0
0.4375 0.125 0
0.4375 0.1875 0
0.4375 0.25 0
0.4375 0.3125 0
0.4375 0.375 0
0.4375 0.4375 0
0.4375 0.5 0
0.4375 0.5625 0
0.4375 0.625 0
0.4375 0.6875 0
0.4375 0.75 0
0.4375 0.8125 0
0.4375 0.875 0
0.4375 0.9375 0
0.5 0 0
0.5 0.0625 0
0.5 0.125 0
0.5 0.1875 0
0.5 0.25 0
0.5 0.3125 0
0.5 0.375 0
0.5 0.4375 0
0.5 0.5 0
0.5 0.5625 0
0.5 0.625 0
0.5 0.6875 0
0.5 0.75 0
0.5 0.8125 0
0.5 0.875 0
0.5 0.9375 0
0.5625 0 0
0.5625 0.0625 0
0.5625 0.125 0
0.5625 0.1875 0
0.5625 0.25 0
0.5625 0.3125 0
0.5625 0.375 0
0.5625 0.4375 0
0.5625 0.5 0
0.5625 0.5625 0
0.5625 0.625 0
0.5625 0.6875 0
0.5625 0.75 0
0.5625 0.8125 0
0.5625 0.875 0
0.5625 0.9375 0
0.625 0 0
0.625 0.0625 0
0.625 0.125 0
0.625 0.1875 0
0.625 0.25 0
0.625 0.3125 0
0.625 0.375 0
0.625 0.4375 0
0.625 0.5 0
0.625 0.5625 0
0.625 0.625 0
0.625 0.6875 0
0.625 0.75 0
0.625 0.8125 0
0.625 0.875 0
0.625 0.9375 0
0.6875 0 0
0.6875 0.0625 0
0.6875 0.125 0
0.6875 0.1875 0
0.6875 0.25 0
0.6875 0.3125 0
0.6875 0.375 0
0.6875 0.4375 0
0.6875 0.5 0
0.6875 0.5625 0
0.6875 0.625 0
0.6875 0.6875 0
0.6875 0.75 0
0.6875 0.8125 0
0.6875 0.875 0
0.6875 0.9375 0
0.75 0 0
0.75 0.0625 0
0.75 0.125 0
0.75 0.1875 0
0.75 0.25 0
0.75 0.3125 0
0.75 0.375 0
0.75 0.4375 0
0.75 0.5 0
0.75 0.5625 0
0.75 0.625 0
0.75 0.6875 0
0.75 0.75 0
0.75 0.8125 0
0.75 0.875 0
0.75 0.9375 0
0.8125 0 0
0.8125 0.0625 0
0.8125 0.125 0
0.8125 0.1875 0
0.8125 0.25 0
0.8125 0.3125 0
0.8125 0.375 0
0.8125 0.4375 0
0.8125 0.5 0
0.8125 0.5625 0
0.8125 0.625 0
0.8125 0.6875 0
0.8125 0.75 0
0.8125 0.8125 0
0.8125 0.875 0
0.8125 0.9375 0
0.875 0 0
0.875 0.0625 0
0.875 0.125 0
0.875 0.1875 0
0.875 0.25 0
0.875 0.3125 0
0.875 0.375 0
0.875 0.4375 0
0.875 0.5 0
0.875 0.5625 0
0.875 0.625 0
0.875 0.6875 0
0.875 0.75 0
0.875 0.8125 0
0.875 0.875 0
0.875 0.9375 0
0.9375 0 0
0.9375 0.0625 0
0.9375 0.125 0
0.9375 0.1875 0
0.9375 0.25 0
0.9375 0.3125 0
0.9375 0.375 0
0.9375 0.4375 0
0.9375 0.5 0
0.9375 0.5625 0
0.9375 0.625 0
0.9375 0.6875 0
0.9375 0.75 0
0.9375 0.8125 0
0.9375 0.875 0
0.9375 0.9375 0


POINT_DATA 256
SCALARS values float
LOOKUP_TABLE default
0
0
0
0
0
0
0
0
0
0
0
0
0
0
0
0
0
0.16787499
0.30672287
0.39253558
0.41047533
0.35744015
0.24260033
0.08581271
-0.08581271
-0.24260033
-0.35744015
-0.41047533
-0.39253558
-0.30672287
-0.16787499
0
0
0.30672287
0.56041058
0.7171982
0.74997574
0.65307566
0.44325286
0.15678762
-0.15678762
-0.44325286
-0.65307566
-0.74997574
-0.7171982
-0.56041058
-0.30672287
0
0
0.39253558
0.7171982
0.91785073
0.95979853
0.83578845
0.56726295
0.20065253
-0.20065253
-0.56726295
-0.83578845
-0.95979853
-0.91785073
-0.7171982
-0.39253558
0
0
0.41047533
0.74997574
0.95979853
1.0036634
0.87398582
0.59318811
0.20982279
-0.20982279
-0.59318811
-0.87398582
-1.0036634
-0.95979853
-0.74997574
-0.41047533
0
0
0.35744015
0.65307566
0.83578845
0.87398582
0.76106311
0.51654567
0.18271279
-0.18271279
-0.51654567
-0.76106311
-0.87398582
-0.83578845
-0.65307566
-0.35744015
0
0
0.24260033
0.44325286
0.56726295
0.59318811
0.51654567
0.35058778
0.12401008
-0.12401008
-0.35058778
-0.51654567
-0.59318811
-0.56726295
-0.44325286
-0.24260033
0
0
0.08581271
0.15678762
0.20065253
0.20982279
0.18271279
0.12401008
0.043864908
-0.043864908
-0.12401008
-0.18271279
-0.20982279
-0.20065253
-0.15678762
-0.08581271
0
0
-0.08581271
-0.15678762
-0.20065253
-0.20982279
-0.18271279
-0.12401008
-0.043864908
0.043864908
0.12401008
0.18271279
0.20982279
0.20065253
0.15678762
0.08581271
0
0
-0.24260033
-0.44325286
-0.56726295
-0.59318811
-0.51654567
-0.35058778
-0.12401008
0.12401008
0.35058778
0.51654567
0.59318811
0.56726295
0.44325286
0.24260033
0
0
-0.35744015
-0.65307566
-0.83578845
-0.87398582
-0.76106311
-0.51654567
-0.18271279
0.18271279
0.51654567
0.76106311
0.87398582
0.83578845
0.65307566
0.35744015
0
0
-0.41047533
-0.74997574
-0.95979853
-1.0036634
-0.87398582
-0.59318811
-0.20982279
0.20982279
0.59318811
0.87398582
1.0036634
0.95979853
0.74997574
0.41047533
0
0
-0.39253558
-0.7171982
-0.91785073
-0.95979853
-0.83578845
-0.56726295
-0.20065253
0.20065253
0.56726295
0.83578845
0.95979853
0.91785073
0.7171982
0.39253558
0
0
-0.30672287
-0.56041058
-0.7171982
-0.74997574
-0.65307566
-0.44325286
-0.15678762
0.15678762
0.44325286
0.65307566
0.74997574
0.7171982
0.56041058
0.30672287
0
0
-0.16787499
-0.30672287
-0.39253558
-0.41047533
-0.35744015
-0.24260033
-0.08581271
0.08581271
0.24260033
0.35744015
0.41047533
0.39253558
0.30672287
0.16787499
0
0
0
0
0
0
0
0
0
0
0
0
0
0
0
0
0
